 "TITLE = 3D-Temperature  by Amin zaami" 
VARIABLES = "X", "Y", "Z", "Temp" 
zone  N=    9000 E=   7644 DATAPACKING = POINT, ZONETYPE = FEBRICK  
STRANDID=1, SOLUTIONTIME=  1 
 0.000000 0.000000  0.000000 279.532592 
 0.000000 0.001429  0.000000 241.218303 
 0.000000 0.002857  0.000000 237.287480 
 0.000000 0.004286  0.000000 237.583459 
 0.000000 0.005714  0.000000 240.782903 
 0.000000 0.007143  0.000000 241.887313 
 0.000000 0.008571  0.000000 249.036383 
 0.000000 0.010000  0.000000 245.584693 
 0.000000 0.011429  0.000000 245.880514 
 0.000000 0.012857  0.000000 242.142117 
 0.000000 0.014286  0.000000 238.370368 
 0.000000 0.015714  0.000000 236.784093 
 0.000000 0.017143  0.000000 237.648827 
 0.000000 0.018571  0.000000 234.974228 
 0.000000 0.020000  0.000000 197.688238 
 0.003846 0.000000  0.000000 306.675683 
 0.003846 0.001429  0.000000 263.160728 
 0.003846 0.002857  0.000000 259.151646 
 0.003846 0.004286  0.000000 259.264299 
 0.003846 0.005714  0.000000 263.017846 
 0.003846 0.007143  0.000000 263.449789 
 0.003846 0.008571  0.000000 271.368192 
 0.003846 0.010000  0.000000 267.373263 
 0.003846 0.011429  0.000000 267.878306 
 0.003846 0.012857  0.000000 264.022893 
 0.003846 0.014286  0.000000 260.401647 
 0.003846 0.015714  0.000000 258.489553 
 0.003846 0.017143  0.000000 259.609735 
 0.003846 0.018571  0.000000 256.840246 
 0.003846 0.020000  0.000000 214.622679 
 0.007692 0.000000  0.000000 345.522615 
 0.007692 0.001429  0.000000 294.449885 
 0.007692 0.002857  0.000000 290.357452 
 0.007692 0.004286  0.000000 290.149406 
 0.007692 0.005714  0.000000 294.731954 
 0.007692 0.007143  0.000000 293.963973 
 0.007692 0.008571  0.000000 302.906608 
 0.007692 0.010000  0.000000 298.128891 
 0.007692 0.011429  0.000000 298.963806 
 0.007692 0.012857  0.000000 295.050425 
 0.007692 0.014286  0.000000 291.851821 
 0.007692 0.015714  0.000000 289.430534 
 0.007692 0.017143  0.000000 290.939287 
 0.007692 0.018571  0.000000 288.004930 
 0.007692 0.020000  0.000000 238.686774 
 0.011538 0.000000  0.000000 313.253696 
 0.011538 0.001429  0.000000 271.799400 
 0.011538 0.002857  0.000000 266.405545 
 0.011538 0.004286  0.000000 267.259291 
 0.011538 0.005714  0.000000 273.554928 
 0.011538 0.007143  0.000000 279.497439 
 0.011538 0.008571  0.000000 292.299389 
 0.011538 0.010000  0.000000 287.627759 
 0.011538 0.011429  0.000000 287.845249 
 0.011538 0.012857  0.000000 280.043567 
 0.011538 0.014286  0.000000 269.920725 
 0.011538 0.015714  0.000000 267.774702 
 0.011538 0.017143  0.000000 269.169232 
 0.011538 0.018571  0.000000 266.887198 
 0.011538 0.020000  0.000000 223.163268 
 0.015385 0.000000  0.000000 290.283101 
 0.015385 0.001429  0.000000 253.521535 
 0.015385 0.002857  0.000000 250.403890 
 0.015385 0.004286  0.000000 249.040078 
 0.015385 0.005714  0.000000 251.510852 
 0.015385 0.007143  0.000000 257.898041 
 0.015385 0.008571  0.000000 267.294122 
 0.015385 0.010000  0.000000 264.992226 
 0.015385 0.011429  0.000000 263.515635 
 0.015385 0.012857  0.000000 257.294186 
 0.015385 0.014286  0.000000 249.617839 
 0.015385 0.015714  0.000000 247.157688 
 0.015385 0.017143  0.000000 248.746624 
 0.015385 0.018571  0.000000 246.958411 
 0.015385 0.020000  0.000000 208.704355 
 0.019231 0.000000  0.000000 271.481883 
 0.019231 0.001429  0.000000 238.083135 
 0.019231 0.002857  0.000000 234.004456 
 0.019231 0.004286  0.000000 236.111094 
 0.019231 0.005714  0.000000 235.412709 
 0.019231 0.007143  0.000000 246.461920 
 0.019231 0.008571  0.000000 253.754726 
 0.019231 0.010000  0.000000 249.575958 
 0.019231 0.011429  0.000000 248.888580 
 0.019231 0.012857  0.000000 241.296788 
 0.019231 0.014286  0.000000 229.836108 
 0.019231 0.015714  0.000000 230.045083 
 0.019231 0.017143  0.000000 228.529496 
 0.019231 0.018571  0.000000 226.908545 
 0.019231 0.020000  0.000000 195.771031 
 0.023077 0.000000  0.000000 242.229036 
 0.023077 0.001429  0.000000 215.431874 
 0.023077 0.002857  0.000000 210.758147 
 0.023077 0.004286  0.000000 216.204854 
 0.023077 0.005714  0.000000 214.874467 
 0.023077 0.007143  0.000000 225.528022 
 0.023077 0.008571  0.000000 232.410965 
 0.023077 0.010000  0.000000 230.884516 
 0.023077 0.011429  0.000000 230.015612 
 0.023077 0.012857  0.000000 223.537986 
 0.023077 0.014286  0.000000 212.803591 
 0.023077 0.015714  0.000000 216.670302 
 0.023077 0.017143  0.000000 214.918582 
 0.023077 0.018571  0.000000 213.312733 
 0.023077 0.020000  0.000000 185.776368 
 0.026923 0.000000  0.000000 212.422434 
 0.026923 0.001429  0.000000 192.177486 
 0.026923 0.002857  0.000000 186.777321 
 0.026923 0.004286  0.000000 193.256989 
 0.026923 0.005714  0.000000 190.731721 
 0.026923 0.007143  0.000000 201.100393 
 0.026923 0.008571  0.000000 207.960012 
 0.026923 0.010000  0.000000 206.442093 
 0.026923 0.011429  0.000000 205.189175 
 0.026923 0.012857  0.000000 199.475154 
 0.026923 0.014286  0.000000 189.070673 
 0.026923 0.015714  0.000000 193.585743 
 0.026923 0.017143  0.000000 190.989216 
 0.026923 0.018571  0.000000 189.838391 
 0.026923 0.020000  0.000000 168.307977 
 0.030769 0.000000  0.000000 187.096844 
 0.030769 0.001429  0.000000 170.439136 
 0.030769 0.002857  0.000000 163.924068 
 0.030769 0.004286  0.000000 171.725821 
 0.030769 0.005714  0.000000 168.027689 
 0.030769 0.007143  0.000000 177.880190 
 0.030769 0.008571  0.000000 181.439706 
 0.030769 0.010000  0.000000 179.869844 
 0.030769 0.011429  0.000000 178.528624 
 0.030769 0.012857  0.000000 173.590995 
 0.030769 0.014286  0.000000 163.699341 
 0.030769 0.015714  0.000000 169.261334 
 0.030769 0.017143  0.000000 166.268997 
 0.030769 0.018571  0.000000 164.864032 
 0.030769 0.020000  0.000000 150.018083 
 0.034615 0.000000  0.000000 167.539948 
 0.034615 0.001429  0.000000 154.996821 
 0.034615 0.002857  0.000000 150.264446 
 0.034615 0.004286  0.000000 156.623644 
 0.034615 0.005714  0.000000 151.449772 
 0.034615 0.007143  0.000000 159.852029 
 0.034615 0.008571  0.000000 162.270124 
 0.034615 0.010000  0.000000 160.943969 
 0.034615 0.011429  0.000000 159.380286 
 0.034615 0.012857  0.000000 155.187431 
 0.034615 0.014286  0.000000 145.991862 
 0.034615 0.015714  0.000000 149.339056 
 0.034615 0.017143  0.000000 145.632873 
 0.034615 0.018571  0.000000 143.647513 
 0.034615 0.020000  0.000000 129.641067 
 0.038462 0.000000  0.000000 139.695517 
 0.038462 0.001429  0.000000 127.872067 
 0.038462 0.002857  0.000000 125.216360 
 0.038462 0.004286  0.000000 129.864667 
 0.038462 0.005714  0.000000 126.446337 
 0.038462 0.007143  0.000000 136.870591 
 0.038462 0.008571  0.000000 136.174749 
 0.038462 0.010000  0.000000 137.393943 
 0.038462 0.011429  0.000000 136.126936 
 0.038462 0.012857  0.000000 132.425645 
 0.038462 0.014286  0.000000 127.247209 
 0.038462 0.015714  0.000000 127.990087 
 0.038462 0.017143  0.000000 127.052291 
 0.038462 0.018571  0.000000 127.971049 
 0.038462 0.020000  0.000000 114.057279 
 0.042308 0.000000  0.000000 103.344122 
 0.042308 0.001429  0.000000 95.779921 
 0.042308 0.002857  0.000000 93.543878 
 0.042308 0.004286  0.000000 98.379381 
 0.042308 0.005714  0.000000 94.627734 
 0.042308 0.007143  0.000000 104.458380 
 0.042308 0.008571  0.000000 103.471407 
 0.042308 0.010000  0.000000 104.024945 
 0.042308 0.011429  0.000000 103.366183 
 0.042308 0.012857  0.000000 99.666505 
 0.042308 0.014286  0.000000 95.774689 
 0.042308 0.015714  0.000000 96.459370 
 0.042308 0.017143  0.000000 95.546474 
 0.042308 0.018571  0.000000 96.567775 
 0.042308 0.020000  0.000000 88.099528 
 0.046154 0.000000  0.000000 66.542386 
 0.046154 0.001429  0.000000 61.074228 
 0.046154 0.002857  0.000000 58.269689 
 0.046154 0.004286  0.000000 61.102891 
 0.046154 0.005714  0.000000 59.127894 
 0.046154 0.007143  0.000000 64.850861 
 0.046154 0.008571  0.000000 62.957453 
 0.046154 0.010000  0.000000 63.225945 
 0.046154 0.011429  0.000000 62.923086 
 0.046154 0.012857  0.000000 60.559851 
 0.046154 0.014286  0.000000 58.584489 
 0.046154 0.015714  0.000000 58.691679 
 0.046154 0.017143  0.000000 58.407265 
 0.046154 0.018571  0.000000 58.765459 
 0.046154 0.020000  0.000000 55.797567 
 0.050000 0.000000  0.000000 28.312988 
 0.050000 0.001429  0.000000 28.555969 
 0.050000 0.002857  0.000000 28.555067 
 0.050000 0.004286  0.000000 28.560526 
 0.050000 0.005714  0.000000 29.152078 
 0.050000 0.007143  0.000000 31.396860 
 0.050000 0.008571  0.000000 32.076778 
 0.050000 0.010000  0.000000 32.038525 
 0.050000 0.011429  0.000000 32.066511 
 0.050000 0.012857  0.000000 30.009482 
 0.050000 0.014286  0.000000 28.668704 
 0.050000 0.015714  0.000000 28.551945 
 0.050000 0.017143  0.000000 28.739608 
 0.050000 0.018571  0.000000 28.666278 
 0.050000 0.020000  0.000000 29.230253 
 0.053846 0.000000  0.000000 27.112463 
 0.053846 0.001429  0.000000 27.113564 
 0.053846 0.002857  0.000000 27.113569 
 0.053846 0.004286  0.000000 27.114954 
 0.053846 0.005714  0.000000 27.398447 
 0.053846 0.007143  0.000000 28.459176 
 0.053846 0.008571  0.000000 28.783818 
 0.053846 0.010000  0.000000 28.767933 
 0.053846 0.011429  0.000000 28.780548 
 0.053846 0.012857  0.000000 27.810328 
 0.053846 0.014286  0.000000 27.117415 
 0.053846 0.015714  0.000000 27.114042 
 0.053846 0.017143  0.000000 27.212801 
 0.053846 0.018571  0.000000 27.115544 
 0.053846 0.020000  0.000000 27.322717 
 0.057692 0.000000  0.000000 26.950066 
 0.057692 0.001429  0.000000 26.950071 
 0.057692 0.002857  0.000000 26.950071 
 0.057692 0.004286  0.000000 26.950085 
 0.057692 0.005714  0.000000 26.951402 
 0.057692 0.007143  0.000000 26.956249 
 0.057692 0.008571  0.000000 26.957754 
 0.057692 0.010000  0.000000 26.957689 
 0.057692 0.011429  0.000000 26.957723 
 0.057692 0.012857  0.000000 26.953286 
 0.057692 0.014286  0.000000 26.950106 
 0.057692 0.015714  0.000000 26.950076 
 0.057692 0.017143  0.000000 26.950523 
 0.057692 0.018571  0.000000 26.950088 
 0.057692 0.020000  0.000000 26.951029 
 0.061538 0.000000  0.000000 26.789331 
 0.061538 0.001429  0.000000 26.789331 
 0.061538 0.002857  0.000000 26.789331 
 0.061538 0.004286  0.000000 26.789331 
 0.061538 0.005714  0.000000 26.789337 
 0.061538 0.007143  0.000000 26.789361 
 0.061538 0.008571  0.000000 26.789368 
 0.061538 0.010000  0.000000 26.789368 
 0.061538 0.011429  0.000000 26.789368 
 0.061538 0.012857  0.000000 26.789346 
 0.061538 0.014286  0.000000 26.789331 
 0.061538 0.015714  0.000000 26.789331 
 0.061538 0.017143  0.000000 26.789333 
 0.061538 0.018571  0.000000 26.789331 
 0.061538 0.020000  0.000000 26.789335 
 0.065385 0.000000  0.000000 26.625241 
 0.065385 0.001429  0.000000 26.625241 
 0.065385 0.002857  0.000000 26.625241 
 0.065385 0.004286  0.000000 26.625241 
 0.065385 0.005714  0.000000 26.625241 
 0.065385 0.007143  0.000000 26.625241 
 0.065385 0.008571  0.000000 26.625241 
 0.065385 0.010000  0.000000 26.625241 
 0.065385 0.011429  0.000000 26.625241 
 0.065385 0.012857  0.000000 26.625241 
 0.065385 0.014286  0.000000 26.625241 
 0.065385 0.015714  0.000000 26.625241 
 0.065385 0.017143  0.000000 26.625241 
 0.065385 0.018571  0.000000 26.625241 
 0.065385 0.020000  0.000000 26.625241 
 0.069231 0.000000  0.000000 26.457552 
 0.069231 0.001429  0.000000 26.457552 
 0.069231 0.002857  0.000000 26.457552 
 0.069231 0.004286  0.000000 26.457552 
 0.069231 0.005714  0.000000 26.457552 
 0.069231 0.007143  0.000000 26.457552 
 0.069231 0.008571  0.000000 26.457552 
 0.069231 0.010000  0.000000 26.457552 
 0.069231 0.011429  0.000000 26.457552 
 0.069231 0.012857  0.000000 26.457552 
 0.069231 0.014286  0.000000 26.457552 
 0.069231 0.015714  0.000000 26.457552 
 0.069231 0.017143  0.000000 26.457552 
 0.069231 0.018571  0.000000 26.457552 
 0.069231 0.020000  0.000000 26.457552 
 0.073077 0.000000  0.000000 26.286014 
 0.073077 0.001429  0.000000 26.286014 
 0.073077 0.002857  0.000000 26.286014 
 0.073077 0.004286  0.000000 26.286014 
 0.073077 0.005714  0.000000 26.286014 
 0.073077 0.007143  0.000000 26.286014 
 0.073077 0.008571  0.000000 26.286014 
 0.073077 0.010000  0.000000 26.286014 
 0.073077 0.011429  0.000000 26.286014 
 0.073077 0.012857  0.000000 26.286014 
 0.073077 0.014286  0.000000 26.286014 
 0.073077 0.015714  0.000000 26.286014 
 0.073077 0.017143  0.000000 26.286014 
 0.073077 0.018571  0.000000 26.286014 
 0.073077 0.020000  0.000000 26.286014 
 0.076923 0.000000  0.000000 26.110352 
 0.076923 0.001429  0.000000 26.110352 
 0.076923 0.002857  0.000000 26.110352 
 0.076923 0.004286  0.000000 26.110352 
 0.076923 0.005714  0.000000 26.110352 
 0.076923 0.007143  0.000000 26.110352 
 0.076923 0.008571  0.000000 26.110352 
 0.076923 0.010000  0.000000 26.110352 
 0.076923 0.011429  0.000000 26.110352 
 0.076923 0.012857  0.000000 26.110352 
 0.076923 0.014286  0.000000 26.110352 
 0.076923 0.015714  0.000000 26.110352 
 0.076923 0.017143  0.000000 26.110352 
 0.076923 0.018571  0.000000 26.110352 
 0.076923 0.020000  0.000000 26.110352 
 0.080769 0.000000  0.000000 25.930253 
 0.080769 0.001429  0.000000 25.930253 
 0.080769 0.002857  0.000000 25.930253 
 0.080769 0.004286  0.000000 25.930253 
 0.080769 0.005714  0.000000 25.930253 
 0.080769 0.007143  0.000000 25.930253 
 0.080769 0.008571  0.000000 25.930253 
 0.080769 0.010000  0.000000 25.930253 
 0.080769 0.011429  0.000000 25.930253 
 0.080769 0.012857  0.000000 25.930253 
 0.080769 0.014286  0.000000 25.930253 
 0.080769 0.015714  0.000000 25.930253 
 0.080769 0.017143  0.000000 25.930253 
 0.080769 0.018571  0.000000 25.930253 
 0.080769 0.020000  0.000000 25.930253 
 0.084615 0.000000  0.000000 25.745362 
 0.084615 0.001429  0.000000 25.745362 
 0.084615 0.002857  0.000000 25.745362 
 0.084615 0.004286  0.000000 25.745362 
 0.084615 0.005714  0.000000 25.745362 
 0.084615 0.007143  0.000000 25.745362 
 0.084615 0.008571  0.000000 25.745362 
 0.084615 0.010000  0.000000 25.745362 
 0.084615 0.011429  0.000000 25.745362 
 0.084615 0.012857  0.000000 25.745362 
 0.084615 0.014286  0.000000 25.745362 
 0.084615 0.015714  0.000000 25.745362 
 0.084615 0.017143  0.000000 25.745362 
 0.084615 0.018571  0.000000 25.745362 
 0.084615 0.020000  0.000000 25.745362 
 0.088462 0.000000  0.000000 25.555278 
 0.088462 0.001429  0.000000 25.555278 
 0.088462 0.002857  0.000000 25.555278 
 0.088462 0.004286  0.000000 25.555278 
 0.088462 0.005714  0.000000 25.555278 
 0.088462 0.007143  0.000000 25.555278 
 0.088462 0.008571  0.000000 25.555278 
 0.088462 0.010000  0.000000 25.555278 
 0.088462 0.011429  0.000000 25.555278 
 0.088462 0.012857  0.000000 25.555278 
 0.088462 0.014286  0.000000 25.555278 
 0.088462 0.015714  0.000000 25.555278 
 0.088462 0.017143  0.000000 25.555278 
 0.088462 0.018571  0.000000 25.555278 
 0.088462 0.020000  0.000000 25.555278 
 0.092308 0.000000  0.000000 25.359537 
 0.092308 0.001429  0.000000 25.359537 
 0.092308 0.002857  0.000000 25.359537 
 0.092308 0.004286  0.000000 25.359537 
 0.092308 0.005714  0.000000 25.359537 
 0.092308 0.007143  0.000000 25.359537 
 0.092308 0.008571  0.000000 25.359537 
 0.092308 0.010000  0.000000 25.359537 
 0.092308 0.011429  0.000000 25.359537 
 0.092308 0.012857  0.000000 25.359537 
 0.092308 0.014286  0.000000 25.359537 
 0.092308 0.015714  0.000000 25.359537 
 0.092308 0.017143  0.000000 25.359537 
 0.092308 0.018571  0.000000 25.359537 
 0.092308 0.020000  0.000000 25.359537 
 0.096154 0.000000  0.000000 25.157603 
 0.096154 0.001429  0.000000 25.157603 
 0.096154 0.002857  0.000000 25.157603 
 0.096154 0.004286  0.000000 25.157603 
 0.096154 0.005714  0.000000 25.157603 
 0.096154 0.007143  0.000000 25.157603 
 0.096154 0.008571  0.000000 25.157603 
 0.096154 0.010000  0.000000 25.157603 
 0.096154 0.011429  0.000000 25.157603 
 0.096154 0.012857  0.000000 25.157603 
 0.096154 0.014286  0.000000 25.157603 
 0.096154 0.015714  0.000000 25.157603 
 0.096154 0.017143  0.000000 25.157603 
 0.096154 0.018571  0.000000 25.157603 
 0.096154 0.020000  0.000000 25.157603 
 0.100000 0.000000  0.000000 24.948851 
 0.100000 0.001429  0.000000 24.948851 
 0.100000 0.002857  0.000000 24.948851 
 0.100000 0.004286  0.000000 24.948851 
 0.100000 0.005714  0.000000 24.948851 
 0.100000 0.007143  0.000000 24.948851 
 0.100000 0.008571  0.000000 24.948851 
 0.100000 0.010000  0.000000 24.948851 
 0.100000 0.011429  0.000000 24.948851 
 0.100000 0.012857  0.000000 24.948851 
 0.100000 0.014286  0.000000 24.948851 
 0.100000 0.015714  0.000000 24.948851 
 0.100000 0.017143  0.000000 24.948851 
 0.100000 0.018571  0.000000 24.948851 
 0.100000 0.020000  0.000000 24.948851 
 0.103846 0.000000  0.000000 24.732541 
 0.103846 0.001429  0.000000 24.732541 
 0.103846 0.002857  0.000000 24.732541 
 0.103846 0.004286  0.000000 24.732541 
 0.103846 0.005714  0.000000 24.732541 
 0.103846 0.007143  0.000000 24.732541 
 0.103846 0.008571  0.000000 24.732541 
 0.103846 0.010000  0.000000 24.732541 
 0.103846 0.011429  0.000000 24.732541 
 0.103846 0.012857  0.000000 24.732541 
 0.103846 0.014286  0.000000 24.732541 
 0.103846 0.015714  0.000000 24.732541 
 0.103846 0.017143  0.000000 24.732541 
 0.103846 0.018571  0.000000 24.732541 
 0.103846 0.020000  0.000000 24.732541 
 0.107692 0.000000  0.000000 24.507794 
 0.107692 0.001429  0.000000 24.507794 
 0.107692 0.002857  0.000000 24.507794 
 0.107692 0.004286  0.000000 24.507794 
 0.107692 0.005714  0.000000 24.507794 
 0.107692 0.007143  0.000000 24.507794 
 0.107692 0.008571  0.000000 24.507794 
 0.107692 0.010000  0.000000 24.507794 
 0.107692 0.011429  0.000000 24.507794 
 0.107692 0.012857  0.000000 24.507794 
 0.107692 0.014286  0.000000 24.507794 
 0.107692 0.015714  0.000000 24.507794 
 0.107692 0.017143  0.000000 24.507794 
 0.107692 0.018571  0.000000 24.507794 
 0.107692 0.020000  0.000000 24.507794 
 0.111538 0.000000  0.000000 24.273543 
 0.111538 0.001429  0.000000 24.273543 
 0.111538 0.002857  0.000000 24.273543 
 0.111538 0.004286  0.000000 24.273543 
 0.111538 0.005714  0.000000 24.273543 
 0.111538 0.007143  0.000000 24.273543 
 0.111538 0.008571  0.000000 24.273543 
 0.111538 0.010000  0.000000 24.273543 
 0.111538 0.011429  0.000000 24.273543 
 0.111538 0.012857  0.000000 24.273543 
 0.111538 0.014286  0.000000 24.273543 
 0.111538 0.015714  0.000000 24.273543 
 0.111538 0.017143  0.000000 24.273543 
 0.111538 0.018571  0.000000 24.273543 
 0.111538 0.020000  0.000000 24.273543 
 0.115385 0.000000  0.000000 24.028478 
 0.115385 0.001429  0.000000 24.028478 
 0.115385 0.002857  0.000000 24.028478 
 0.115385 0.004286  0.000000 24.028478 
 0.115385 0.005714  0.000000 24.028478 
 0.115385 0.007143  0.000000 24.028478 
 0.115385 0.008571  0.000000 24.028478 
 0.115385 0.010000  0.000000 24.028478 
 0.115385 0.011429  0.000000 24.028478 
 0.115385 0.012857  0.000000 24.028478 
 0.115385 0.014286  0.000000 24.028478 
 0.115385 0.015714  0.000000 24.028478 
 0.115385 0.017143  0.000000 24.028478 
 0.115385 0.018571  0.000000 24.028478 
 0.115385 0.020000  0.000000 24.028478 
 0.119231 0.000000  0.000000 23.770962 
 0.119231 0.001429  0.000000 23.770962 
 0.119231 0.002857  0.000000 23.770962 
 0.119231 0.004286  0.000000 23.770962 
 0.119231 0.005714  0.000000 23.770962 
 0.119231 0.007143  0.000000 23.770962 
 0.119231 0.008571  0.000000 23.770962 
 0.119231 0.010000  0.000000 23.770962 
 0.119231 0.011429  0.000000 23.770962 
 0.119231 0.012857  0.000000 23.770962 
 0.119231 0.014286  0.000000 23.770962 
 0.119231 0.015714  0.000000 23.770962 
 0.119231 0.017143  0.000000 23.770962 
 0.119231 0.018571  0.000000 23.770962 
 0.119231 0.020000  0.000000 23.770962 
 0.123077 0.000000  0.000000 23.498906 
 0.123077 0.001429  0.000000 23.498906 
 0.123077 0.002857  0.000000 23.498906 
 0.123077 0.004286  0.000000 23.498906 
 0.123077 0.005714  0.000000 23.498906 
 0.123077 0.007143  0.000000 23.498906 
 0.123077 0.008571  0.000000 23.498906 
 0.123077 0.010000  0.000000 23.498906 
 0.123077 0.011429  0.000000 23.498906 
 0.123077 0.012857  0.000000 23.498906 
 0.123077 0.014286  0.000000 23.498906 
 0.123077 0.015714  0.000000 23.498906 
 0.123077 0.017143  0.000000 23.498906 
 0.123077 0.018571  0.000000 23.498906 
 0.123077 0.020000  0.000000 23.498906 
 0.126923 0.000000  0.000000 23.209574 
 0.126923 0.001429  0.000000 23.209574 
 0.126923 0.002857  0.000000 23.209574 
 0.126923 0.004286  0.000000 23.209574 
 0.126923 0.005714  0.000000 23.209574 
 0.126923 0.007143  0.000000 23.209574 
 0.126923 0.008571  0.000000 23.209574 
 0.126923 0.010000  0.000000 23.209574 
 0.126923 0.011429  0.000000 23.209574 
 0.126923 0.012857  0.000000 23.209574 
 0.126923 0.014286  0.000000 23.209574 
 0.126923 0.015714  0.000000 23.209574 
 0.126923 0.017143  0.000000 23.209574 
 0.126923 0.018571  0.000000 23.209574 
 0.126923 0.020000  0.000000 23.209574 
 0.130769 0.000000  0.000000 22.899281 
 0.130769 0.001429  0.000000 22.899281 
 0.130769 0.002857  0.000000 22.899281 
 0.130769 0.004286  0.000000 22.899281 
 0.130769 0.005714  0.000000 22.899281 
 0.130769 0.007143  0.000000 22.899281 
 0.130769 0.008571  0.000000 22.899281 
 0.130769 0.010000  0.000000 22.899281 
 0.130769 0.011429  0.000000 22.899281 
 0.130769 0.012857  0.000000 22.899281 
 0.130769 0.014286  0.000000 22.899281 
 0.130769 0.015714  0.000000 22.899281 
 0.130769 0.017143  0.000000 22.899281 
 0.130769 0.018571  0.000000 22.899281 
 0.130769 0.020000  0.000000 22.899281 
 0.134615 0.000000  0.000000 22.562885 
 0.134615 0.001429  0.000000 22.562885 
 0.134615 0.002857  0.000000 22.562885 
 0.134615 0.004286  0.000000 22.562885 
 0.134615 0.005714  0.000000 22.562885 
 0.134615 0.007143  0.000000 22.562885 
 0.134615 0.008571  0.000000 22.562885 
 0.134615 0.010000  0.000000 22.562885 
 0.134615 0.011429  0.000000 22.562885 
 0.134615 0.012857  0.000000 22.562885 
 0.134615 0.014286  0.000000 22.562885 
 0.134615 0.015714  0.000000 22.562885 
 0.134615 0.017143  0.000000 22.562885 
 0.134615 0.018571  0.000000 22.562885 
 0.134615 0.020000  0.000000 22.562885 
 0.138462 0.000000  0.000000 22.192913 
 0.138462 0.001429  0.000000 22.192913 
 0.138462 0.002857  0.000000 22.192913 
 0.138462 0.004286  0.000000 22.192913 
 0.138462 0.005714  0.000000 22.192913 
 0.138462 0.007143  0.000000 22.192913 
 0.138462 0.008571  0.000000 22.192913 
 0.138462 0.010000  0.000000 22.192913 
 0.138462 0.011429  0.000000 22.192913 
 0.138462 0.012857  0.000000 22.192913 
 0.138462 0.014286  0.000000 22.192913 
 0.138462 0.015714  0.000000 22.192913 
 0.138462 0.017143  0.000000 22.192913 
 0.138462 0.018571  0.000000 22.192913 
 0.138462 0.020000  0.000000 22.192913 
 0.142308 0.000000  0.000000 21.777983 
 0.142308 0.001429  0.000000 21.777983 
 0.142308 0.002857  0.000000 21.777983 
 0.142308 0.004286  0.000000 21.777983 
 0.142308 0.005714  0.000000 21.777983 
 0.142308 0.007143  0.000000 21.777983 
 0.142308 0.008571  0.000000 21.777983 
 0.142308 0.010000  0.000000 21.777983 
 0.142308 0.011429  0.000000 21.777983 
 0.142308 0.012857  0.000000 21.777983 
 0.142308 0.014286  0.000000 21.777983 
 0.142308 0.015714  0.000000 21.777983 
 0.142308 0.017143  0.000000 21.777983 
 0.142308 0.018571  0.000000 21.777983 
 0.142308 0.020000  0.000000 21.777983 
 0.146154 0.000000  0.000000 21.299807 
 0.146154 0.001429  0.000000 21.299807 
 0.146154 0.002857  0.000000 21.299807 
 0.146154 0.004286  0.000000 21.299807 
 0.146154 0.005714  0.000000 21.299807 
 0.146154 0.007143  0.000000 21.299807 
 0.146154 0.008571  0.000000 21.299807 
 0.146154 0.010000  0.000000 21.299807 
 0.146154 0.011429  0.000000 21.299807 
 0.146154 0.012857  0.000000 21.299807 
 0.146154 0.014286  0.000000 21.299807 
 0.146154 0.015714  0.000000 21.299807 
 0.146154 0.017143  0.000000 21.299807 
 0.146154 0.018571  0.000000 21.299807 
 0.146154 0.020000  0.000000 21.299807 
 0.150000 0.000000  0.000000 20.727275 
 0.150000 0.001429  0.000000 20.727275 
 0.150000 0.002857  0.000000 20.727275 
 0.150000 0.004286  0.000000 20.727275 
 0.150000 0.005714  0.000000 20.727275 
 0.150000 0.007143  0.000000 20.727275 
 0.150000 0.008571  0.000000 20.727275 
 0.150000 0.010000  0.000000 20.727275 
 0.150000 0.011429  0.000000 20.727275 
 0.150000 0.012857  0.000000 20.727275 
 0.150000 0.014286  0.000000 20.727275 
 0.150000 0.015714  0.000000 20.727275 
 0.150000 0.017143  0.000000 20.727275 
 0.150000 0.018571  0.000000 20.727275 
 0.150000 0.020000  0.000000 20.727275 
 0.000000 0.000000  0.000171 221.884647 
 0.000000 0.001429  0.000171 193.408515 
 0.000000 0.002857  0.000171 190.017741 
 0.000000 0.004286  0.000171 190.709266 
 0.000000 0.005714  0.000171 192.826047 
 0.000000 0.007143  0.000171 195.218385 
 0.000000 0.008571  0.000171 200.985997 
 0.000000 0.010000  0.000171 198.477230 
 0.000000 0.011429  0.000171 198.438189 
 0.000000 0.012857  0.000171 194.891484 
 0.000000 0.014286  0.000171 190.780805 
 0.000000 0.015714  0.000171 189.864686 
 0.000000 0.017143  0.000171 190.276537 
 0.000000 0.018571  0.000171 188.187850 
 0.000000 0.020000  0.000171 160.193834 
 0.003846 0.000000  0.000171 225.226659 
 0.003846 0.001429  0.000171 196.230148 
 0.003846 0.002857  0.000171 192.836277 
 0.003846 0.004286  0.000171 193.615659 
 0.003846 0.005714  0.000171 195.749612 
 0.003846 0.007143  0.000171 198.518208 
 0.003846 0.008571  0.000171 204.572061 
 0.003846 0.010000  0.000171 201.982782 
 0.003846 0.011429  0.000171 201.919620 
 0.003846 0.012857  0.000171 198.124993 
 0.003846 0.014286  0.000171 193.613425 
 0.003846 0.015714  0.000171 192.733352 
 0.003846 0.017143  0.000171 193.140233 
 0.003846 0.018571  0.000171 191.156438 
 0.003846 0.020000  0.000171 162.532520 
 0.007692 0.000000  0.000171 221.746088 
 0.007692 0.001429  0.000171 193.692595 
 0.007692 0.002857  0.000171 190.293643 
 0.007692 0.004286  0.000171 191.263911 
 0.007692 0.005714  0.000171 193.263994 
 0.007692 0.007143  0.000171 196.911035 
 0.007692 0.008571  0.000171 203.206704 
 0.007692 0.010000  0.000171 200.672107 
 0.007692 0.011429  0.000171 200.490481 
 0.007692 0.012857  0.000171 196.304073 
 0.007692 0.014286  0.000171 191.044455 
 0.007692 0.015714  0.000171 190.319928 
 0.007692 0.017143  0.000171 190.636492 
 0.007692 0.018571  0.000171 188.835428 
 0.007692 0.020000  0.000171 160.856929 
 0.011538 0.000000  0.000171 201.074397 
 0.011538 0.001429  0.000171 177.642999 
 0.011538 0.002857  0.000171 174.218539 
 0.011538 0.004286  0.000171 175.623373 
 0.011538 0.005714  0.000171 177.113462 
 0.011538 0.007143  0.000171 182.826936 
 0.011538 0.008571  0.000171 189.211796 
 0.011538 0.010000  0.000171 187.078193 
 0.011538 0.011429  0.000171 186.548461 
 0.011538 0.012857  0.000171 181.652275 
 0.011538 0.014286  0.000171 174.843860 
 0.011538 0.015714  0.000171 174.565713 
 0.011538 0.017143  0.000171 174.583215 
 0.011538 0.018571  0.000171 173.129934 
 0.011538 0.020000  0.000171 149.025111 
 0.015385 0.000000  0.000171 182.828870 
 0.015385 0.001429  0.000171 162.669933 
 0.015385 0.002857  0.000171 159.731116 
 0.015385 0.004286  0.000171 161.358513 
 0.015385 0.005714  0.000171 161.232537 
 0.015385 0.007143  0.000171 167.530391 
 0.015385 0.008571  0.000171 172.421361 
 0.015385 0.010000  0.000171 170.907252 
 0.015385 0.011429  0.000171 170.041719 
 0.015385 0.012857  0.000171 165.624485 
 0.015385 0.014286  0.000171 159.199610 
 0.015385 0.015714  0.000171 159.528964 
 0.015385 0.017143  0.000171 159.103303 
 0.015385 0.018571  0.000171 157.902134 
 0.015385 0.020000  0.000171 137.579354 
 0.019231 0.000000  0.000171 164.597447 
 0.019231 0.001429  0.000171 147.597832 
 0.019231 0.002857  0.000171 144.410998 
 0.019231 0.004286  0.000171 147.427053 
 0.019231 0.005714  0.000171 146.240702 
 0.019231 0.007143  0.000171 153.447513 
 0.019231 0.008571  0.000171 157.372122 
 0.019231 0.010000  0.000171 155.826070 
 0.019231 0.011429  0.000171 155.131662 
 0.019231 0.012857  0.000171 150.759147 
 0.019231 0.014286  0.000171 143.786241 
 0.019231 0.015714  0.000171 145.300125 
 0.019231 0.017143  0.000171 144.006317 
 0.019231 0.018571  0.000171 142.964950 
 0.019231 0.020000  0.000171 126.364806 
 0.023077 0.000000  0.000171 144.287632 
 0.023077 0.001429  0.000171 130.931696 
 0.023077 0.002857  0.000171 127.662436 
 0.023077 0.004286  0.000171 131.573200 
 0.023077 0.005714  0.000171 129.978240 
 0.023077 0.007143  0.000171 136.761044 
 0.023077 0.008571  0.000171 140.059896 
 0.023077 0.010000  0.000171 139.286439 
 0.023077 0.011429  0.000171 138.523799 
 0.023077 0.012857  0.000171 134.778012 
 0.023077 0.014286  0.000171 128.436848 
 0.023077 0.015714  0.000171 130.845930 
 0.023077 0.017143  0.000171 129.424653 
 0.023077 0.018571  0.000171 128.534387 
 0.023077 0.020000  0.000171 114.847971 
 0.026923 0.000000  0.000171 124.889726 
 0.026923 0.001429  0.000171 114.619967 
 0.026923 0.002857  0.000171 111.379611 
 0.026923 0.004286  0.000171 115.399575 
 0.026923 0.005714  0.000171 113.367157 
 0.026923 0.007143  0.000171 119.694139 
 0.026923 0.008571  0.000171 122.189019 
 0.026923 0.010000  0.000171 121.541149 
 0.026923 0.011429  0.000171 120.716040 
 0.026923 0.012857  0.000171 117.487745 
 0.026923 0.014286  0.000171 111.786212 
 0.026923 0.015714  0.000171 114.144017 
 0.026923 0.017143  0.000171 112.575202 
 0.026923 0.018571  0.000171 111.894063 
 0.026923 0.020000  0.000171 101.369789 