 "TITLE = 2D-Temperature  by Amin zaami" 
VARIABLES = "X", "Y", "Temp" 
zone  N=    390 E=   348 F=FEPOINT  ET=QUADRILATERAL  
STRANDID=1, SOLUTIONTIME=  1 
 0.000000 0.000000  20.081776 
 0.000000 0.002500  20.162965 
 0.000000 0.005000  20.076077 
 0.000000 0.007500  20.125289 
 0.000000 0.010000  20.201236 
 0.000000 0.012500  20.155808 
 0.000000 0.015000  20.152888 
 0.000000 0.017500  20.120962 
 0.000000 0.020000  20.000218 
 0.000000 0.022500  20.000122 
 0.000000 0.025000  20.000122 
 0.000000 0.027500  20.000122 
 0.000000 0.030000  20.000122 
 0.003448 0.000000  20.205665 
 0.003448 0.002500  20.411721 
 0.003448 0.005000  20.350284 
 0.003448 0.007500  20.349264 
 0.003448 0.010000  20.428855 
 0.003448 0.012500  20.443641 
 0.003448 0.015000  20.441876 
 0.003448 0.017500  20.325823 
 0.003448 0.020000  20.041075 
 0.003448 0.022500  20.000267 
 0.003448 0.025000  20.000244 
 0.003448 0.027500  20.000244 
 0.003448 0.030000  20.000244 
 0.006897 0.000000  20.369267 
 0.006897 0.002500  20.704879 
 0.006897 0.005000  20.624117 
 0.006897 0.007500  20.590678 
 0.006897 0.010000  20.685321 
 0.006897 0.012500  20.699312 
 0.006897 0.015000  20.706288 
 0.006897 0.017500  20.552793 
 0.006897 0.020000  20.092388 
 0.006897 0.022500  20.000440 
 0.006897 0.025000  20.000367 
 0.006897 0.027500  20.000367 
 0.006897 0.030000  20.000366 
 0.010345 0.000000  20.440250 
 0.010345 0.002500  20.971589 
 0.010345 0.005000  20.923276 
 0.010345 0.007500  20.857771 
 0.010345 0.010000  20.981504 
 0.010345 0.012500  20.989185 
 0.010345 0.015000  20.953027 
 0.010345 0.017500  20.783126 
 0.010345 0.020000  20.192147 
 0.010345 0.022500  20.000667 
 0.010345 0.025000  20.000489 
 0.010345 0.027500  20.000489 
 0.010345 0.030000  20.000488 
 0.013793 0.000000  20.604419 
 0.013793 0.002500  21.215503 
 0.013793 0.005000  21.173934 
 0.013793 0.007500  21.099065 
 0.013793 0.010000  21.248634 
 0.013793 0.012500  21.300681 
 0.013793 0.015000  21.223043 
 0.013793 0.017500  21.053045 
 0.013793 0.020000  20.362394 
 0.013793 0.022500  20.001038 
 0.013793 0.025000  20.000611 
 0.013793 0.027500  20.000611 
 0.013793 0.030000  20.000610 
 0.017241 0.000000  20.710735 
 0.017241 0.002500  21.507414 
 0.017241 0.005000  21.383163 
 0.017241 0.007500  21.314384 
 0.017241 0.010000  21.508357 
 0.017241 0.012500  21.511750 
 0.017241 0.015000  21.483052 
 0.017241 0.017500  21.319319 
 0.017241 0.020000  20.581620 
 0.017241 0.022500  20.071007 
 0.017241 0.025000  20.000772 
 0.017241 0.027500  20.000733 
 0.017241 0.030000  20.000732 
 0.020690 0.000000  20.862670 
 0.020690 0.002500  21.758384 
 0.020690 0.005000  21.632365 
 0.020690 0.007500  21.556301 
 0.020690 0.010000  21.741797 
 0.020690 0.012500  21.740880 
 0.020690 0.015000  21.724399 
 0.020690 0.017500  21.569326 
 0.020690 0.020000  20.825075 
 0.020690 0.022500  20.175487 
 0.020690 0.025000  20.000991 
 0.020690 0.027500  20.000856 
 0.020690 0.030000  20.000854 
 0.024138 0.000000  21.011230 
 0.024138 0.002500  22.035027 
 0.024138 0.005000  21.888016 
 0.024138 0.007500  21.799077 
 0.024138 0.010000  21.979950 
 0.024138 0.012500  21.977373 
 0.024138 0.015000  21.948419 
 0.024138 0.017500  21.805880 
 0.024138 0.020000  21.059964 
 0.024138 0.022500  20.286028 
 0.024138 0.025000  20.001278 
 0.024138 0.027500  20.000978 
 0.024138 0.030000  20.000975 
 0.027586 0.000000  21.088267 
 0.027586 0.002500  22.286244 
 0.027586 0.005000  22.148205 
 0.027586 0.007500  22.063036 
 0.027586 0.010000  22.204246 
 0.027586 0.012500  22.179139 
 0.027586 0.015000  22.205703 
 0.027586 0.017500  22.008503 
 0.027586 0.020000  21.257876 
 0.027586 0.022500  20.498726 
 0.027586 0.025000  20.012921 
 0.027586 0.027500  20.001107 
 0.027586 0.030000  20.001097 
 0.031034 0.000000  21.231322 
 0.031034 0.002500  22.501425 
 0.031034 0.005000  22.413504 
 0.031034 0.007500  22.306041 
 0.031034 0.010000  22.477906 
 0.031034 0.012500  22.419460 
 0.031034 0.015000  22.412566 
 0.031034 0.017500  22.236987 
 0.031034 0.020000  21.488530 
 0.031034 0.022500  20.688219 
 0.031034 0.025000  20.056646 
 0.031034 0.027500  20.001263 
 0.031034 0.030000  20.001223 
 0.034483 0.000000  21.349264 
 0.034483 0.002500  22.739590 
 0.034483 0.005000  22.630065 
 0.034483 0.007500  22.566599 
 0.034483 0.010000  22.740314 
 0.034483 0.012500  22.671300 
 0.034483 0.015000  22.673861 
 0.034483 0.017500  22.464264 
 0.034483 0.020000  21.708106 
 0.034483 0.022500  20.891638 
 0.034483 0.025000  20.113435 
 0.034483 0.027500  20.006131 
 0.034483 0.030000  20.007702 
 0.037931 0.000000  21.439162 
 0.037931 0.002500  22.931696 
 0.037931 0.005000  22.865201 
 0.037931 0.007500  22.761507 
 0.037931 0.010000  22.948012 
 0.037931 0.012500  22.921820 
 0.037931 0.015000  22.904230 
 0.037931 0.017500  22.721985 
 0.037931 0.020000  21.927055 
 0.037931 0.022500  21.085573 
 0.037931 0.025000  20.233521 
 0.037931 0.027500  20.011346 
 0.037931 0.030000  20.014883 
 0.041379 0.000000  21.658005 
 0.041379 0.002500  23.103843 
 0.041379 0.005000  23.059298 
 0.041379 0.007500  23.015590 
 0.041379 0.010000  23.133997 
 0.041379 0.012500  23.130928 
 0.041379 0.015000  23.160438 
 0.041379 0.017500  22.970528 
 0.041379 0.020000  22.135075 
 0.041379 0.022500  21.315277 
 0.041379 0.025000  20.367177 
 0.041379 0.027500  20.043449 
 0.041379 0.030000  20.015016 
 0.044828 0.000000  21.743036 
 0.044828 0.002500  23.385337 
 0.044828 0.005000  23.245458 
 0.044828 0.007500  23.250979 
 0.044828 0.010000  23.418582 
 0.044828 0.012500  23.339805 
 0.044828 0.015000  23.425152 
 0.044828 0.017500  23.242043 
 0.044828 0.020000  22.384003 
 0.044828 0.022500  21.491612 
 0.044828 0.025000  20.560860 
 0.044828 0.027500  20.076194 
 0.044828 0.030000  20.021111 
 0.048276 0.000000  21.833998 
 0.048276 0.002500  23.564997 
 0.048276 0.005000  23.549342 
 0.048276 0.007500  23.471877 
 0.048276 0.010000  23.663472 
 0.048276 0.012500  23.619627 
 0.048276 0.015000  23.680553 
 0.048276 0.017500  23.528853 
 0.048276 0.020000  22.685042 
 0.048276 0.022500  21.739150 
 0.048276 0.025000  20.738589 
 0.048276 0.027500  20.155471 
 0.048276 0.030000  20.030279 
 0.051724 0.000000  22.022122 
 0.051724 0.002500  23.755449 
 0.051724 0.005000  23.769570 
 0.051724 0.007500  23.769191 
 0.051724 0.010000  23.905642 
 0.051724 0.012500  23.870120 
 0.051724 0.015000  23.947094 
 0.051724 0.017500  23.807532 
 0.051724 0.020000  22.936019 
 0.051724 0.022500  22.009898 
 0.051724 0.025000  20.988772 
 0.051724 0.027500  20.280773 
 0.051724 0.030000  20.049050 
 0.055172 0.000000  22.127283 
 0.055172 0.002500  24.027788 
 0.055172 0.005000  23.970252 
 0.055172 0.007500  23.983914 
 0.055172 0.010000  24.192523 
 0.055172 0.012500  24.110280 
 0.055172 0.015000  24.163518 
 0.055172 0.017500  24.102785 
 0.055172 0.020000  23.204150 
 0.055172 0.022500  22.227145 
 0.055172 0.025000  21.259974 
 0.055172 0.027500  20.436590 
 0.055172 0.030000  20.063783 
 0.058621 0.000000  22.206095 
 0.058621 0.002500  24.196654 
 0.058621 0.005000  24.261256 
 0.058621 0.007500  24.154930 
 0.058621 0.010000  24.391565 
 0.058621 0.012500  24.362014 
 0.058621 0.015000  24.380727 
 0.058621 0.017500  24.310776 
 0.058621 0.020000  23.443839 
 0.058621 0.022500  22.439163 
 0.058621 0.025000  21.436733 
 0.058621 0.027500  20.653503 
 0.058621 0.030000  20.093705 
 0.062069 0.000000  22.430752 
 0.062069 0.002500  24.360550 
 0.062069 0.005000  24.432674 
 0.062069 0.007500  24.405760 
 0.062069 0.010000  24.576623 
 0.062069 0.012500  24.564933 
 0.062069 0.015000  24.645321 
 0.062069 0.017500  24.528436 
 0.062069 0.020000  23.614787 
 0.062069 0.022500  22.677516 
 0.062069 0.025000  21.632211 
 0.062069 0.027500  20.803654 
 0.062069 0.030000  20.150317 
 0.065517 0.000000  22.518519 
 0.065517 0.002500  24.610049 
 0.065517 0.005000  24.619828 
 0.065517 0.007500  24.597296 
 0.065517 0.010000  24.803973 
 0.065517 0.012500  24.760583 
 0.065517 0.015000  24.847960 
 0.065517 0.017500  24.755917 
 0.065517 0.020000  23.787876 
 0.065517 0.022500  22.873787 
 0.065517 0.025000  21.879613 
 0.065517 0.027500  20.996497 
 0.065517 0.030000  20.229265 
 0.068966 0.000000  22.579427 
 0.068966 0.002500  24.795316 
 0.068966 0.005000  24.832828 
 0.068966 0.007500  24.782460 
 0.068966 0.010000  25.003727 
 0.068966 0.012500  24.970995 
 0.068966 0.015000  25.033258 
 0.068966 0.017500  24.946592 
 0.068966 0.020000  24.000646 
 0.068966 0.022500  23.065572 
 0.068966 0.025000  22.087468 
 0.068966 0.027500  21.210807 
 0.068966 0.030000  20.359009 
 0.072414 0.000000  22.722306 
 0.072414 0.002500  25.010312 
 0.072414 0.005000  25.021701 
 0.072414 0.007500  24.989619 
 0.072414 0.010000  25.208859 
 0.072414 0.012500  25.127011 
 0.072414 0.015000  25.233331 
 0.072414 0.017500  25.162709 
 0.072414 0.020000  24.189999 
 0.072414 0.022500  23.255910 
 0.072414 0.025000  22.320054 
 0.072414 0.027500  21.358041 
 0.072414 0.030000  20.404334 
 0.075862 0.000000  22.801853 
 0.075862 0.002500  25.239843 
 0.075862 0.005000  25.261117 
 0.075862 0.007500  25.183384 
 0.075862 0.010000  25.393589 
 0.075862 0.012500  25.381857 
 0.075862 0.015000  25.398875 
 0.075862 0.017500  25.328982 
 0.075862 0.020000  24.482032 
 0.075862 0.022500  23.412127 
 0.075862 0.025000  22.472171 
 0.075862 0.027500  21.606792 
 0.075862 0.030000  20.495498 
 0.079310 0.000000  22.929610 
 0.079310 0.002500  25.395660 
 0.079310 0.005000  25.440053 
 0.079310 0.007500  25.434384 
 0.079310 0.010000  25.552027 
 0.079310 0.012500  25.527946 
 0.079310 0.015000  25.671352 
 0.079310 0.017500  25.486109 
 0.079310 0.020000  24.634357 
 0.079310 0.022500  23.668286 
 0.079310 0.025000  22.644600 
 0.079310 0.027500  21.769837 
 0.079310 0.030000  20.611848 
 0.082759 0.000000  23.027227 
 0.082759 0.002500  25.623566 
 0.082759 0.005000  25.653252 
 0.082759 0.007500  25.584404 
 0.082759 0.010000  25.761769 
 0.082759 0.012500  25.763595 
 0.082759 0.015000  25.833575 
 0.082759 0.017500  25.680039 
 0.082759 0.020000  24.855003 
 0.082759 0.022500  23.838570 
 0.082759 0.025000  22.844468 
 0.082759 0.027500  21.986990 
 0.082759 0.030000  20.690464 
 0.086207 0.000000  23.207886 
 0.086207 0.002500  25.757495 
 0.086207 0.005000  25.803521 
 0.086207 0.007500  25.849044 
 0.086207 0.010000  25.908716 
 0.086207 0.012500  25.929310 
 0.086207 0.015000  26.052975 
 0.086207 0.017500  25.816634 
 0.086207 0.020000  25.016723 
 0.086207 0.022500  24.073401 
 0.086207 0.025000  22.971323 
 0.086207 0.027500  22.124396 
 0.086207 0.030000  20.768040 
 0.089655 0.000000  23.283302 
 0.089655 0.002500  25.923947 
 0.089655 0.005000  25.975358 
 0.089655 0.007500  25.976847 
 0.089655 0.010000  26.044241 
 0.089655 0.012500  26.074799 
 0.089655 0.015000  26.241679 
 0.089655 0.017500  26.008290 
 0.089655 0.020000  25.190508 
 0.089655 0.022500  24.252812 
 0.089655 0.025000  23.157067 
 0.089655 0.027500  22.309831 
 0.089655 0.030000  20.896124 
 0.093103 0.000000  23.343906 
 0.093103 0.002500  26.001440 
 0.093103 0.005000  26.000276 
 0.093103 0.007500  26.092009 
 0.093103 0.010000  26.125191 
 0.093103 0.012500  26.074923 
 0.093103 0.015000  26.298919 
 0.093103 0.017500  26.080873 
 0.093103 0.020000  25.190504 
 0.093103 0.022500  24.300631 
 0.093103 0.025000  23.236374 
 0.093103 0.027500  22.309636 
 0.093103 0.030000  20.908847 
 0.096552 0.000000  23.343568 
 0.096552 0.002500  25.999952 
 0.096552 0.005000  26.000302 
 0.096552 0.007500  26.091950 
 0.096552 0.010000  26.125117 
 0.096552 0.012500  26.075048 
 0.096552 0.015000  26.298644 
 0.096552 0.017500  26.080477 
 0.096552 0.020000  25.190499 
 0.096552 0.022500  24.300552 
 0.096552 0.025000  23.236493 
 0.096552 0.027500  22.309441 
 0.096552 0.030000  20.909217 
 0.100000 0.000000  23.343230 
 0.100000 0.002500  25.998468 
 0.100000 0.005000  26.000327 
 0.100000 0.007500  26.091891 
 0.100000 0.010000  26.125044 
 0.100000 0.012500  26.075172 
 0.100000 0.015000  26.298369 
 0.100000 0.017500  26.080081 
 0.100000 0.020000  25.190494 
 0.100000 0.022500  24.300473 
 0.100000 0.025000  23.236611 
 0.100000 0.027500  22.309247 
 0.100000 0.030000  20.909587 
 1 2 15 14 
 2 3 16 15 
 3 4 17 16 
 4 5 18 17 
 5 6 19 18 
 6 7 20 19 
 7 8 21 20 
 8 9 22 21 
 9 10 23 22 
 10 11 24 23 
 11 12 25 24 
 12 13 26 25 
 14 15 28 27 
 15 16 29 28 
 16 17 30 29 
 17 18 31 30 
 18 19 32 31 
 19 20 33 32 
 20 21 34 33 
 21 22 35 34 
 22 23 36 35 
 23 24 37 36 
 24 25 38 37 
 25 26 39 38 
 27 28 41 40 
 28 29 42 41 
 29 30 43 42 
 30 31 44 43 
 31 32 45 44 
 32 33 46 45 
 33 34 47 46 
 34 35 48 47 
 35 36 49 48 
 36 37 50 49 
 37 38 51 50 
 38 39 52 51 
 40 41 54 53 
 41 42 55 54 
 42 43 56 55 
 43 44 57 56 
 44 45 58 57 
 45 46 59 58 
 46 47 60 59 
 47 48 61 60 
 48 49 62 61 
 49 50 63 62 
 50 51 64 63 
 51 52 65 64 
 53 54 67 66 
 54 55 68 67 
 55 56 69 68 
 56 57 70 69 
 57 58 71 70 
 58 59 72 71 
 59 60 73 72 
 60 61 74 73 
 61 62 75 74 
 62 63 76 75 
 63 64 77 76 
 64 65 78 77 
 66 67 80 79 
 67 68 81 80 
 68 69 82 81 
 69 70 83 82 
 70 71 84 83 
 71 72 85 84 
 72 73 86 85 
 73 74 87 86 
 74 75 88 87 
 75 76 89 88 
 76 77 90 89 
 77 78 91 90 
 79 80 93 92 
 80 81 94 93 
 81 82 95 94 
 82 83 96 95 
 83 84 97 96 
 84 85 98 97 
 85 86 99 98 
 86 87 100 99 
 87 88 101 100 
 88 89 102 101 
 89 90 103 102 
 90 91 104 103 
 92 93 106 105 
 93 94 107 106 
 94 95 108 107 
 95 96 109 108 
 96 97 110 109 
 97 98 111 110 
 98 99 112 111 
 99 100 113 112 
 100 101 114 113 
 101 102 115 114 
 102 103 116 115 
 103 104 117 116 
 105 106 119 118 
 106 107 120 119 
 107 108 121 120 
 108 109 122 121 
 109 110 123 122 
 110 111 124 123 
 111 112 125 124 
 112 113 126 125 
 113 114 127 126 
 114 115 128 127 
 115 116 129 128 
 116 117 130 129 
 118 119 132 131 
 119 120 133 132 
 120 121 134 133 
 121 122 135 134 
 122 123 136 135 
 123 124 137 136 
 124 125 138 137 
 125 126 139 138 
 126 127 140 139 
 127 128 141 140 
 128 129 142 141 
 129 130 143 142 
 131 132 145 144 
 132 133 146 145 
 133 134 147 146 
 134 135 148 147 
 135 136 149 148 
 136 137 150 149 
 137 138 151 150 
 138 139 152 151 
 139 140 153 152 
 140 141 154 153 
 141 142 155 154 
 142 143 156 155 
 144 145 158 157 
 145 146 159 158 
 146 147 160 159 
 147 148 161 160 
 148 149 162 161 
 149 150 163 162 
 150 151 164 163 
 151 152 165 164 
 152 153 166 165 
 153 154 167 166 
 154 155 168 167 
 155 156 169 168 
 157 158 171 170 
 158 159 172 171 
 159 160 173 172 
 160 161 174 173 
 161 162 175 174 
 162 163 176 175 
 163 164 177 176 
 164 165 178 177 
 165 166 179 178 
 166 167 180 179 
 167 168 181 180 
 168 169 182 181 
 170 171 184 183 
 171 172 185 184 
 172 173 186 185 
 173 174 187 186 
 174 175 188 187 
 175 176 189 188 
 176 177 190 189 
 177 178 191 190 
 178 179 192 191 
 179 180 193 192 
 180 181 194 193 
 181 182 195 194 
 183 184 197 196 
 184 185 198 197 
 185 186 199 198 
 186 187 200 199 
 187 188 201 200 
 188 189 202 201 
 189 190 203 202 
 190 191 204 203 
 191 192 205 204 
 192 193 206 205 
 193 194 207 206 
 194 195 208 207 
 196 197 210 209 
 197 198 211 210 
 198 199 212 211 
 199 200 213 212 
 200 201 214 213 
 201 202 215 214 
 202 203 216 215 
 203 204 217 216 
 204 205 218 217 
 205 206 219 218 
 206 207 220 219 
 207 208 221 220 
 209 210 223 222 
 210 211 224 223 
 211 212 225 224 
 212 213 226 225 
 213 214 227 226 
 214 215 228 227 
 215 216 229 228 
 216 217 230 229 
 217 218 231 230 
 218 219 232 231 
 219 220 233 232 
 220 221 234 233 
 222 223 236 235 
 223 224 237 236 
 224 225 238 237 
 225 226 239 238 
 226 227 240 239 
 227 228 241 240 
 228 229 242 241 
 229 230 243 242 
 230 231 244 243 
 231 232 245 244 
 232 233 246 245 
 233 234 247 246 
 235 236 249 248 
 236 237 250 249 
 237 238 251 250 
 238 239 252 251 
 239 240 253 252 
 240 241 254 253 
 241 242 255 254 
 242 243 256 255 
 243 244 257 256 
 244 245 258 257 
 245 246 259 258 
 246 247 260 259 
 248 249 262 261 
 249 250 263 262 
 250 251 264 263 
 251 252 265 264 
 252 253 266 265 
 253 254 267 266 
 254 255 268 267 
 255 256 269 268 
 256 257 270 269 
 257 258 271 270 
 258 259 272 271 
 259 260 273 272 
 261 262 275 274 
 262 263 276 275 
 263 264 277 276 
 264 265 278 277 
 265 266 279 278 
 266 267 280 279 
 267 268 281 280 
 268 269 282 281 
 269 270 283 282 
 270 271 284 283 
 271 272 285 284 
 272 273 286 285 
 274 275 288 287 
 275 276 289 288 
 276 277 290 289 
 277 278 291 290 
 278 279 292 291 
 279 280 293 292 
 280 281 294 293 
 281 282 295 294 
 282 283 296 295 
 283 284 297 296 
 284 285 298 297 
 285 286 299 298 
 287 288 301 300 
 288 289 302 301 
 289 290 303 302 
 290 291 304 303 
 291 292 305 304 
 292 293 306 305 
 293 294 307 306 
 294 295 308 307 
 295 296 309 308 
 296 297 310 309 
 297 298 311 310 
 298 299 312 311 
 300 301 314 313 
 301 302 315 314 
 302 303 316 315 
 303 304 317 316 
 304 305 318 317 
 305 306 319 318 
 306 307 320 319 
 307 308 321 320 
 308 309 322 321 
 309 310 323 322 
 310 311 324 323 
 311 312 325 324 
 313 314 327 326 
 314 315 328 327 
 315 316 329 328 
 316 317 330 329 
 317 318 331 330 
 318 319 332 331 
 319 320 333 332 
 320 321 334 333 
 321 322 335 334 
 322 323 336 335 
 323 324 337 336 
 324 325 338 337 
 326 327 340 339 
 327 328 341 340 
 328 329 342 341 
 329 330 343 342 
 330 331 344 343 
 331 332 345 344 
 332 333 346 345 
 333 334 347 346 
 334 335 348 347 
 335 336 349 348 
 336 337 350 349 
 337 338 351 350 
 339 340 353 352 
 340 341 354 353 
 341 342 355 354 
 342 343 356 355 
 343 344 357 356 
 344 345 358 357 
 345 346 359 358 
 346 347 360 359 
 347 348 361 360 
 348 349 362 361 
 349 350 363 362 
 350 351 364 363 
 352 353 366 365 
 353 354 367 366 
 354 355 368 367 
 355 356 369 368 
 356 357 370 369 
 357 358 371 370 
 358 359 372 371 
 359 360 373 372 
 360 361 374 373 
 361 362 375 374 
 362 363 376 375 
 363 364 377 376 
 365 366 379 378 
 366 367 380 379 
 367 368 381 380 
 368 369 382 381 
 369 370 383 382 
 370 371 384 383 
 371 372 385 384 
 372 373 386 385 
 373 374 387 386 
 374 375 388 387 
 375 376 389 388 
 376 377 390 389 
