 "TITLE = 3D-Temperature  by Amin zaami" 
VARIABLES = "X", "Y", "Z", "Temp" 
zone  N=    1170 E=   816 DATAPACKING = POINT, ZONETYPE = FEBRICK  
STRANDID=1, SOLUTIONTIME=  1 
 0.000000 0.000000  0.000000 69.360116 
 0.000000 0.001250  0.000000 109.989988 
 0.000000 0.002500  0.000000 123.893391 
 0.000000 0.003750  0.000000 126.631427 
 0.000000 0.005000  0.000000 127.252131 
 0.000000 0.006250  0.000000 128.108434 
 0.000000 0.007500  0.000000 129.470781 
 0.000000 0.008750  0.000000 130.379632 
 0.000000 0.010000  0.000000 129.950221 
 0.000000 0.011250  0.000000 128.027921 
 0.000000 0.012500  0.000000 125.114026 
 0.000000 0.013750  0.000000 114.185860 
 0.000000 0.015000  0.000000 74.720451 
 0.005029 0.000000  0.000000 72.031262 
 0.005029 0.001250  0.000000 115.065418 
 0.005029 0.002500  0.000000 129.530783 
 0.005029 0.003750  0.000000 132.310158 
 0.005029 0.005000  0.000000 132.761899 
 0.005029 0.006250  0.000000 133.071748 
 0.005029 0.007500  0.000000 133.942631 
 0.005029 0.008750  0.000000 134.266705 
 0.005029 0.010000  0.000000 134.554246 
 0.005029 0.011250  0.000000 133.229899 
 0.005029 0.012500  0.000000 131.087636 
 0.005029 0.013750  0.000000 120.042216 
 0.005029 0.015000  0.000000 78.036010 
 0.010059 0.000000  0.000000 69.980743 
 0.010059 0.001250  0.000000 112.103808 
 0.010059 0.002500  0.000000 124.788705 
 0.010059 0.003750  0.000000 127.477455 
 0.010059 0.005000  0.000000 127.934283 
 0.010059 0.006250  0.000000 129.140425 
 0.010059 0.007500  0.000000 129.623652 
 0.010059 0.008750  0.000000 129.372664 
 0.010059 0.010000  0.000000 129.705978 
 0.010059 0.011250  0.000000 128.106378 
 0.010059 0.012500  0.000000 126.738737 
 0.010059 0.013750  0.000000 116.204043 
 0.010059 0.015000  0.000000 75.841473 
 0.015088 0.000000  0.000000 67.822228 
 0.015088 0.001250  0.000000 107.293172 
 0.015088 0.002500  0.000000 119.807205 
 0.015088 0.003750  0.000000 121.265763 
 0.015088 0.005000  0.000000 121.830087 
 0.015088 0.006250  0.000000 123.154707 
 0.015088 0.007500  0.000000 123.763027 
 0.015088 0.008750  0.000000 123.448053 
 0.015088 0.010000  0.000000 123.781992 
 0.015088 0.011250  0.000000 122.644819 
 0.015088 0.012500  0.000000 121.320546 
 0.015088 0.013750  0.000000 111.775310 
 0.015088 0.015000  0.000000 72.790200 
 0.020118 0.000000  0.000000 65.401187 
 0.020118 0.001250  0.000000 102.783918 
 0.020118 0.002500  0.000000 114.650241 
 0.020118 0.003750  0.000000 115.850610 
 0.020118 0.005000  0.000000 116.087159 
 0.020118 0.006250  0.000000 116.881183 
 0.020118 0.007500  0.000000 117.736196 
 0.020118 0.008750  0.000000 117.506881 
 0.020118 0.010000  0.000000 117.803127 
 0.020118 0.011250  0.000000 116.895459 
 0.020118 0.012500  0.000000 115.407356 
 0.020118 0.013750  0.000000 106.451725 
 0.020118 0.015000  0.000000 69.573754 
 0.025147 0.000000  0.000000 62.756910 
 0.025147 0.001250  0.000000 97.568278 
 0.025147 0.002500  0.000000 108.005128 
 0.025147 0.003750  0.000000 109.008453 
 0.025147 0.005000  0.000000 109.036298 
 0.025147 0.006250  0.000000 109.683003 
 0.025147 0.007500  0.000000 110.744482 
 0.025147 0.008750  0.000000 110.762362 
 0.025147 0.010000  0.000000 111.128906 
 0.025147 0.011250  0.000000 110.017406 
 0.025147 0.012500  0.000000 108.835545 
 0.025147 0.013750  0.000000 100.368797 
 0.025147 0.015000  0.000000 66.073105 
 0.030177 0.000000  0.000000 59.670044 
 0.030177 0.001250  0.000000 92.021164 
 0.030177 0.002500  0.000000 100.696374 
 0.030177 0.003750  0.000000 101.306098 
 0.030177 0.005000  0.000000 101.633722 
 0.030177 0.006250  0.000000 102.130191 
 0.030177 0.007500  0.000000 103.010404 
 0.030177 0.008750  0.000000 103.533039 
 0.030177 0.010000  0.000000 103.579465 
 0.030177 0.011250  0.000000 102.731897 
 0.030177 0.012500  0.000000 102.001106 
 0.030177 0.013750  0.000000 93.622802 
 0.030177 0.015000  0.000000 62.426414 
 0.035206 0.000000  0.000000 56.665743 
 0.035206 0.001250  0.000000 85.588044 
 0.035206 0.002500  0.000000 92.406154 
 0.035206 0.003750  0.000000 92.385819 
 0.035206 0.005000  0.000000 92.978250 
 0.035206 0.006250  0.000000 92.847999 
 0.035206 0.007500  0.000000 93.894003 
 0.035206 0.008750  0.000000 94.569897 
 0.035206 0.010000  0.000000 94.600550 
 0.035206 0.011250  0.000000 94.309174 
 0.035206 0.012500  0.000000 93.443480 
 0.035206 0.013750  0.000000 86.568042 
 0.035206 0.015000  0.000000 58.571065 
 0.040235 0.000000  0.000000 52.043154 
 0.040235 0.001250  0.000000 76.820841 
 0.040235 0.002500  0.000000 81.839647 
 0.040235 0.003750  0.000000 82.030488 
 0.040235 0.005000  0.000000 82.393816 
 0.040235 0.006250  0.000000 83.236511 
 0.040235 0.007500  0.000000 84.013839 
 0.040235 0.008750  0.000000 84.626700 
 0.040235 0.010000  0.000000 84.661840 
 0.040235 0.011250  0.000000 84.591192 
 0.040235 0.012500  0.000000 83.724392 
 0.040235 0.013750  0.000000 78.862583 
 0.040235 0.015000  0.000000 55.263217 
 0.045265 0.000000  0.000000 46.639560 
 0.045265 0.001250  0.000000 66.402058 
 0.045265 0.002500  0.000000 69.731427 
 0.045265 0.003750  0.000000 69.954424 
 0.045265 0.005000  0.000000 70.741941 
 0.045265 0.006250  0.000000 71.123857 
 0.045265 0.007500  0.000000 72.240336 
 0.045265 0.008750  0.000000 72.571752 
 0.045265 0.010000  0.000000 73.071007 
 0.045265 0.011250  0.000000 72.624163 
 0.045265 0.012500  0.000000 72.152494 
 0.045265 0.013750  0.000000 69.253646 
 0.045265 0.015000  0.000000 51.274519 
 0.050294 0.000000  0.000000 40.184322 
 0.050294 0.001250  0.000000 54.766661 
 0.050294 0.002500  0.000000 56.900562 
 0.050294 0.003750  0.000000 57.188361 
 0.050294 0.005000  0.000000 58.171352 
 0.050294 0.006250  0.000000 58.052275 
 0.050294 0.007500  0.000000 59.083955 
 0.050294 0.008750  0.000000 59.448184 
 0.050294 0.010000  0.000000 60.211042 
 0.050294 0.011250  0.000000 59.962397 
 0.050294 0.012500  0.000000 60.084759 
 0.050294 0.013750  0.000000 58.589058 
 0.050294 0.015000  0.000000 46.520840 
 0.055324 0.000000  0.000000 32.720065 
 0.055324 0.001250  0.000000 41.804679 
 0.055324 0.002500  0.000000 42.437478 
 0.055324 0.003750  0.000000 42.764105 
 0.055324 0.005000  0.000000 43.350464 
 0.055324 0.006250  0.000000 43.639234 
 0.055324 0.007500  0.000000 44.423380 
 0.055324 0.008750  0.000000 45.395429 
 0.055324 0.010000  0.000000 45.632118 
 0.055324 0.011250  0.000000 45.847590 
 0.055324 0.012500  0.000000 46.089554 
 0.055324 0.013750  0.000000 45.816633 
 0.055324 0.015000  0.000000 38.007930 
 0.060353 0.000000  0.000000 23.673365 
 0.060353 0.001250  0.000000 26.999141 
 0.060353 0.002500  0.000000 27.095157 
 0.060353 0.003750  0.000000 27.802755 
 0.060353 0.005000  0.000000 28.144632 
 0.060353 0.006250  0.000000 29.168720 
 0.060353 0.007500  0.000000 29.515377 
 0.060353 0.008750  0.000000 30.572463 
 0.060353 0.010000  0.000000 30.515924 
 0.060353 0.011250  0.000000 30.927480 
 0.060353 0.012500  0.000000 31.879446 
 0.060353 0.013750  0.000000 32.252829 
 0.060353 0.015000  0.000000 28.791139 
 0.065383 0.000000  0.000000 20.009649 
 0.065383 0.001250  0.000000 20.018102 
 0.065383 0.002500  0.000000 20.018813 
 0.065383 0.003750  0.000000 20.020589 
 0.065383 0.005000  0.000000 20.021612 
 0.065383 0.006250  0.000000 20.024166 
 0.065383 0.007500  0.000000 20.025281 
 0.065383 0.008750  0.000000 20.028525 
 0.065383 0.010000  0.000000 20.037051 
 0.065383 0.011250  0.000000 20.101154 
 0.065383 0.012500  0.000000 20.414749 
 0.065383 0.013750  0.000000 20.969218 
 0.065383 0.015000  0.000000 20.906960 
 0.070412 0.000000  0.000000 20.000025 
 0.070412 0.001250  0.000000 20.000047 
 0.070412 0.002500  0.000000 20.000050 
 0.070412 0.003750  0.000000 20.000055 
 0.070412 0.005000  0.000000 20.000058 
 0.070412 0.006250  0.000000 20.000065 
 0.070412 0.007500  0.000000 20.000083 
 0.070412 0.008750  0.000000 20.000397 
 0.070412 0.010000  0.000000 20.006933 
 0.070412 0.011250  0.000000 20.064007 
 0.070412 0.012500  0.000000 20.399749 
 0.070412 0.013750  0.000000 20.304340 
 0.070412 0.015000  0.000000 20.198241 
 0.075441 0.000000  0.000000 20.000000 
 0.075441 0.001250  0.000000 20.000000 
 0.075441 0.002500  0.000000 20.000000 
 0.075441 0.003750  0.000000 20.000000 
 0.075441 0.005000  0.000000 20.000000 
 0.075441 0.006250  0.000000 20.000000 
 0.075441 0.007500  0.000000 20.000000 
 0.075441 0.008750  0.000000 20.000002 
 0.075441 0.010000  0.000000 20.000026 
 0.075441 0.011250  0.000000 20.000202 
 0.075441 0.012500  0.000000 20.001005 
 0.075441 0.013750  0.000000 20.000800 
 0.075441 0.015000  0.000000 20.000512 
 0.080471 0.000000  0.000000 20.000000 
 0.080471 0.001250  0.000000 20.000000 
 0.080471 0.002500  0.000000 20.000000 
 0.080471 0.003750  0.000000 20.000000 
 0.080471 0.005000  0.000000 20.000000 
 0.080471 0.006250  0.000000 20.000000 
 0.080471 0.007500  0.000000 20.000000 
 0.080471 0.008750  0.000000 20.000000 
 0.080471 0.010000  0.000000 20.000000 
 0.080471 0.011250  0.000000 20.000001 
 0.080471 0.012500  0.000000 20.000003 
 0.080471 0.013750  0.000000 20.000002 
 0.080471 0.015000  0.000000 20.000001 
 0.085500 0.000000  0.000000 20.000000 
 0.085500 0.001250  0.000000 20.000000 
 0.085500 0.002500  0.000000 20.000000 
 0.085500 0.003750  0.000000 20.000000 
 0.085500 0.005000  0.000000 20.000000 
 0.085500 0.006250  0.000000 20.000000 
 0.085500 0.007500  0.000000 20.000000 
 0.085500 0.008750  0.000000 20.000000 
 0.085500 0.010000  0.000000 20.000000 
 0.085500 0.011250  0.000000 20.000000 
 0.085500 0.012500  0.000000 20.000000 
 0.085500 0.013750  0.000000 20.000000 
 0.085500 0.015000  0.000000 20.000000 
 0.000000 0.000000  0.001000 39.219005 
 0.000000 0.001250  0.001000 54.464186 
 0.000000 0.002500  0.001000 60.517822 
 0.000000 0.003750  0.001000 61.997094 
 0.000000 0.005000  0.001000 62.387305 
 0.000000 0.006250  0.001000 62.740083 
 0.000000 0.007500  0.001000 63.115641 
 0.000000 0.008750  0.001000 63.289204 
 0.000000 0.010000  0.001000 63.300703 
 0.000000 0.011250  0.001000 62.780015 
 0.000000 0.012500  0.001000 61.462290 
 0.000000 0.013750  0.001000 56.166759 
 0.000000 0.015000  0.001000 41.043102 
 0.005029 0.000000  0.001000 38.052746 
 0.005029 0.001250  0.001000 52.368559 
 0.005029 0.002500  0.001000 57.864069 
 0.005029 0.003750  0.001000 59.128420 
 0.005029 0.005000  0.001000 59.461437 
 0.005029 0.006250  0.001000 59.788091 
 0.005029 0.007500  0.001000 60.113547 
 0.005029 0.008750  0.001000 60.230929 
 0.005029 0.010000  0.001000 60.300266 
 0.005029 0.011250  0.001000 59.880571 
 0.005029 0.012500  0.001000 58.799172 
 0.005029 0.013750  0.001000 53.992667 
 0.005029 0.015000  0.001000 39.794225 
 0.010059 0.000000  0.001000 36.444493 
 0.010059 0.001250  0.001000 49.458118 
 0.010059 0.002500  0.001000 54.258906 
 0.010059 0.003750  0.001000 55.282118 
 0.010059 0.005000  0.001000 55.570770 
 0.010059 0.006250  0.001000 55.917050 
 0.010059 0.007500  0.001000 56.224826 
 0.010059 0.008750  0.001000 56.319908 
 0.010059 0.010000  0.001000 56.398667 
 0.010059 0.011250  0.001000 56.039660 
 0.010059 0.012500  0.001000 55.158498 
 0.010059 0.013750  0.001000 50.918584 
 0.010059 0.015000  0.001000 38.027285 
 0.015088 0.000000  0.001000 34.779924 
 0.015088 0.001250  0.001000 46.377371 
 0.015088 0.002500  0.001000 50.550152 
 0.015088 0.003750  0.001000 51.320835 
 0.015088 0.005000  0.001000 51.566465 
 0.015088 0.006250  0.001000 51.865362 
 0.015088 0.007500  0.001000 52.184800 
 0.015088 0.008750  0.001000 52.301529 
 0.015088 0.010000  0.001000 52.385934 
 0.015088 0.011250  0.001000 52.114426 
 0.015088 0.012500  0.001000 51.381347 
 0.015088 0.013750  0.001000 47.718546 
 0.015088 0.015000  0.001000 36.184579 
 0.020118 0.000000  0.001000 33.060652 
 0.020118 0.001250  0.001000 43.244102 
 0.020118 0.002500  0.001000 46.741215 
 0.020118 0.003750  0.001000 47.338089 
 0.020118 0.005000  0.001000 47.537554 
 0.020118 0.006250  0.001000 47.768417 
 0.020118 0.007500  0.001000 48.094185 
 0.020118 0.008750  0.001000 48.243330 
 0.020118 0.010000  0.001000 48.328783 
 0.020118 0.011250  0.001000 48.119114 
 0.020118 0.012500  0.001000 47.529166 
 0.020118 0.013750  0.001000 44.417234 
 0.020118 0.015000  0.001000 34.324101 
 0.025147 0.000000  0.001000 31.293819 
 0.025147 0.001250  0.001000 40.020634 
 0.025147 0.002500  0.001000 42.815444 
 0.025147 0.003750  0.001000 43.257351 
 0.025147 0.005000  0.001000 43.440561 
 0.025147 0.006250  0.001000 43.633323 
 0.025147 0.007500  0.001000 43.948709 
 0.025147 0.008750  0.001000 44.131747 
 0.025147 0.010000  0.001000 44.216599 
 0.025147 0.011250  0.001000 44.056750 
 0.025147 0.012500  0.001000 43.625222 
 0.025147 0.013750  0.001000 41.062415 
 0.025147 0.015000  0.001000 32.457304 
 0.030177 0.000000  0.001000 29.486567 
 0.030177 0.001250  0.001000 36.744498 
 0.030177 0.002500  0.001000 38.869243 
 0.030177 0.003750  0.001000 39.173657 
 0.030177 0.005000  0.001000 39.365739 
 0.030177 0.006250  0.001000 39.524884 
 0.030177 0.007500  0.001000 39.810322 
 0.030177 0.008750  0.001000 40.016408 
 0.030177 0.010000  0.001000 40.089922 
 0.030177 0.011250  0.001000 40.001433 
 0.030177 0.012500  0.001000 39.709040 
 0.030177 0.013750  0.001000 37.700384 
 0.030177 0.015000  0.001000 30.605768 
 0.035206 0.000000  0.001000 27.664085 
 0.035206 0.001250  0.001000 33.424491 
 0.035206 0.002500  0.001000 34.946149 
 0.035206 0.003750  0.001000 35.148208 
 0.035206 0.005000  0.001000 35.336157 
 0.035206 0.006250  0.001000 35.467171 
 0.035206 0.007500  0.001000 35.731427 
 0.035206 0.008750  0.001000 35.926334 
 0.035206 0.010000  0.001000 36.007855 
 0.035206 0.011250  0.001000 35.980045 
 0.035206 0.012500  0.001000 35.788991 
 0.035206 0.013750  0.001000 34.377481 
 0.035206 0.015000  0.001000 28.782149 
 0.040235 0.000000  0.001000 25.812085 
 0.040235 0.001250  0.001000 30.114297 
 0.040235 0.002500  0.001000 31.123653 
 0.040235 0.003750  0.001000 31.284865 
 0.040235 0.005000  0.001000 31.452687 
 0.040235 0.006250  0.001000 31.603779 
 0.040235 0.007500  0.001000 31.829828 
 0.040235 0.008750  0.001000 31.998557 
 0.040235 0.010000  0.001000 32.089225 
 0.040235 0.011250  0.001000 32.084555 
 0.040235 0.012500  0.001000 31.995983 
 0.040235 0.013750  0.001000 31.120156 
 0.040235 0.015000  0.001000 27.004958 
 0.045265 0.000000  0.001000 24.054880 
 0.045265 0.001250  0.001000 27.002474 
 0.045265 0.002500  0.001000 27.602417 
 0.045265 0.003750  0.001000 27.724270 
 0.045265 0.005000  0.001000 27.887962 
 0.045265 0.006250  0.001000 27.984913 
 0.045265 0.007500  0.001000 28.186490 
 0.045265 0.008750  0.001000 28.329418 
 0.045265 0.010000  0.001000 28.431894 
 0.045265 0.011250  0.001000 28.431325 
 0.045265 0.012500  0.001000 28.441503 
 0.045265 0.013750  0.001000 27.982306 
 0.045265 0.015000  0.001000 25.230805 
 0.050294 0.000000  0.001000 22.468600 
 0.050294 0.001250  0.001000 24.252802 
 0.050294 0.002500  0.001000 24.557205 
 0.050294 0.003750  0.001000 24.649869 
 0.050294 0.005000  0.001000 24.777685 
 0.050294 0.006250  0.001000 24.847074 
 0.050294 0.007500  0.001000 24.993498 
 0.050294 0.008750  0.001000 25.129000 
 0.050294 0.010000  0.001000 25.208233 
 0.050294 0.011250  0.001000 25.239087 
 0.050294 0.012500  0.001000 25.317448 
 0.050294 0.013750  0.001000 25.136126 
 0.050294 0.015000  0.001000 23.506284 
 0.055324 0.000000  0.001000 21.164575 
 0.055324 0.001250  0.001000 22.023272 
 0.055324 0.002500  0.001000 22.122042 
 0.055324 0.003750  0.001000 22.190857 
 0.055324 0.005000  0.001000 22.259689 
 0.055324 0.006250  0.001000 22.342516 
 0.055324 0.007500  0.001000 22.428372 
 0.055324 0.008750  0.001000 22.556526 
 0.055324 0.010000  0.001000 22.582369 
 0.055324 0.011250  0.001000 22.633981 
 0.055324 0.012500  0.001000 22.731004 
 0.055324 0.013750  0.001000 22.715478 
 0.055324 0.015000  0.001000 21.888293 
 0.060353 0.000000  0.001000 20.273294 
 0.060353 0.001250  0.001000 20.512803 
 0.060353 0.002500  0.001000 20.532156 
 0.060353 0.003750  0.001000 20.582239 
 0.060353 0.005000  0.001000 20.610830 
 0.060353 0.006250  0.001000 20.682800 
 0.060353 0.007500  0.001000 20.712773 
 0.060353 0.008750  0.001000 20.786051 
 0.060353 0.010000  0.001000 20.788453 
 0.060353 0.011250  0.001000 20.828714 
 0.060353 0.012500  0.001000 20.929074 
 0.060353 0.013750  0.001000 20.973489 
 0.060353 0.015000  0.001000 20.699808 
 0.065383 0.000000  0.001000 20.001374 
 0.065383 0.001250  0.001000 20.002547 
 0.065383 0.002500  0.001000 20.002700 
 0.065383 0.003750  0.001000 20.002946 
 0.065383 0.005000  0.001000 20.003105 
 0.065383 0.006250  0.001000 20.003453 
 0.065383 0.007500  0.001000 20.003635 
 0.065383 0.008750  0.001000 20.004134 
 0.065383 0.010000  0.001000 20.005695 
 0.065383 0.011250  0.001000 20.015807 
 0.065383 0.012500  0.001000 20.056930 
 0.065383 0.013750  0.001000 20.091091 
 0.065383 0.015000  0.001000 20.078032 
 0.070412 0.000000  0.001000 20.000005 
 0.070412 0.001250  0.001000 20.000010 
 0.070412 0.002500  0.001000 20.000010 
 0.070412 0.003750  0.001000 20.000011 
 0.070412 0.005000  0.001000 20.000012 
 0.070412 0.006250  0.001000 20.000013 
 0.070412 0.007500  0.001000 20.000017 
 0.070412 0.008750  0.001000 20.000069 
 0.070412 0.010000  0.001000 20.000731 
 0.070412 0.011250  0.001000 20.005633 
 0.070412 0.012500  0.001000 20.028384 
 0.070412 0.013750  0.001000 20.022650 
 0.070412 0.015000  0.001000 20.014564 
 0.075441 0.000000  0.001000 20.000000 
 0.075441 0.001250  0.001000 20.000000 
 0.075441 0.002500  0.001000 20.000000 
 0.075441 0.003750  0.001000 20.000000 
 0.075441 0.005000  0.001000 20.000000 
 0.075441 0.006250  0.001000 20.000000 
 0.075441 0.007500  0.001000 20.000000 
 0.075441 0.008750  0.001000 20.000001 
 0.075441 0.010000  0.001000 20.000005 
 0.075441 0.011250  0.001000 20.000032 
 0.075441 0.012500  0.001000 20.000138 
 0.075441 0.013750  0.001000 20.000114 
 0.075441 0.015000  0.001000 20.000072 
 0.080471 0.000000  0.001000 20.000000 
 0.080471 0.001250  0.001000 20.000000 
 0.080471 0.002500  0.001000 20.000000 
 0.080471 0.003750  0.001000 20.000000 
 0.080471 0.005000  0.001000 20.000000 
 0.080471 0.006250  0.001000 20.000000 
 0.080471 0.007500  0.001000 20.000000 
 0.080471 0.008750  0.001000 20.000000 
 0.080471 0.010000  0.001000 20.000000 
 0.080471 0.011250  0.001000 20.000000 
 0.080471 0.012500  0.001000 20.000001 
 0.080471 0.013750  0.001000 20.000000 
 0.080471 0.015000  0.001000 20.000000 
 0.085500 0.000000  0.001000 20.000000 
 0.085500 0.001250  0.001000 20.000000 
 0.085500 0.002500  0.001000 20.000000 
 0.085500 0.003750  0.001000 20.000000 
 0.085500 0.005000  0.001000 20.000000 
 0.085500 0.006250  0.001000 20.000000 
 0.085500 0.007500  0.001000 20.000000 
 0.085500 0.008750  0.001000 20.000000 
 0.085500 0.010000  0.001000 20.000000 
 0.085500 0.011250  0.001000 20.000000 
 0.085500 0.012500  0.001000 20.000000 
 0.085500 0.013750  0.001000 20.000000 
 0.085500 0.015000  0.001000 20.000000 
 0.000000 0.000000  0.002000 25.785638 
 0.000000 0.001250  0.002000 30.270549 
 0.000000 0.002500  0.002000 32.194434 
 0.000000 0.003750  0.002000 32.726673 
 0.000000 0.005000  0.002000 32.889785 
 0.000000 0.006250  0.002000 33.015212 
 0.000000 0.007500  0.002000 33.141526 
 0.000000 0.008750  0.002000 33.211782 
 0.000000 0.010000  0.002000 33.230391 
 0.000000 0.011250  0.002000 33.091912 
 0.000000 0.012500  0.002000 32.620700 
 0.000000 0.013750  0.002000 30.853697 
 0.000000 0.015000  0.002000 26.337338 
 0.005029 0.000000  0.002000 25.086945 
 0.005029 0.001250  0.002000 29.015586 
 0.005029 0.002500  0.002000 30.646212 
 0.005029 0.003750  0.002000 31.074331 
 0.005029 0.005000  0.002000 31.209498 
 0.005029 0.006250  0.002000 31.321090 
 0.005029 0.007500  0.002000 31.436997 
 0.005029 0.008750  0.002000 31.502152 
 0.005029 0.010000  0.002000 31.528104 
 0.005029 0.011250  0.002000 31.422773 
 0.005029 0.012500  0.002000 31.047384 
 0.005029 0.013750  0.002000 29.548904 
 0.005029 0.015000  0.002000 25.593250 
 0.010059 0.000000  0.002000 24.363912 
 0.010059 0.001250  0.002000 27.716645 
 0.010059 0.002500  0.002000 29.058216 
 0.010059 0.003750  0.002000 29.390354 
 0.010059 0.005000  0.002000 29.501519 
 0.010059 0.006250  0.002000 29.599861 
 0.010059 0.007500  0.002000 29.707775 
 0.010059 0.008750  0.002000 29.771369 
 0.010059 0.010000  0.002000 29.800092 
 0.010059 0.011250  0.002000 29.722491 
 0.010059 0.012500  0.002000 29.431713 
 0.010059 0.013750  0.002000 28.196678 
 0.010059 0.015000  0.002000 24.821618 
 0.015088 0.000000  0.002000 23.667143 
 0.015088 0.001250  0.002000 26.465120 
 0.015088 0.002500  0.002000 27.540847 
 0.015088 0.003750  0.002000 27.790612 
 0.015088 0.005000  0.002000 27.881642 
 0.015088 0.006250  0.002000 27.963548 
 0.015088 0.007500  0.002000 28.063931 
 0.015088 0.008750  0.002000 28.127918 
 0.015088 0.010000  0.002000 28.157915 
 0.015088 0.011250  0.002000 28.105113 
 0.015088 0.012500  0.002000 27.887062 
 0.015088 0.013750  0.002000 26.896844 
 0.015088 0.015000  0.002000 24.080541 
 0.020118 0.000000  0.002000 23.004291 
 0.020118 0.001250  0.002000 25.280092 
 0.020118 0.002500  0.002000 26.110997 
 0.020118 0.003750  0.002000 26.294824 
 0.020118 0.005000  0.002000 26.369835 
 0.020118 0.006250  0.002000 26.436706 
 0.020118 0.007500  0.002000 26.527677 
 0.020118 0.008750  0.002000 26.590839 
 0.020118 0.010000  0.002000 26.620623 
 0.020118 0.011250  0.002000 26.587453 
 0.020118 0.012500  0.002000 26.433029 
 0.020118 0.013750  0.002000 25.665713 
 0.020118 0.015000  0.002000 23.380205 
 0.025147 0.000000  0.002000 22.383759 
 0.025147 0.001250  0.002000 24.174131 
 0.025147 0.002500  0.002000 24.787461 
 0.025147 0.003750  0.002000 24.917796 
 0.025147 0.005000  0.002000 24.981221 
 0.025147 0.006250  0.002000 25.036457 
 0.025147 0.007500  0.002000 25.116048 
 0.025147 0.008750  0.002000 25.176095 
 0.025147 0.010000  0.002000 25.204543 
 0.025147 0.011250  0.002000 25.187317 
 0.025147 0.012500  0.002000 25.087191 
 0.025147 0.013750  0.002000 24.520023 
 0.025147 0.015000  0.002000 22.727548 
 0.030177 0.000000  0.002000 21.814942 
 0.030177 0.001250  0.002000 23.164996 
 0.030177 0.002500  0.002000 23.594193 
 0.030177 0.003750  0.002000 23.683209 
 0.030177 0.005000  0.002000 23.737181 
 0.030177 0.006250  0.002000 23.782370 
 0.030177 0.007500  0.002000 23.849424 
 0.030177 0.008750  0.002000 23.903482 
 0.030177 0.010000  0.002000 23.929650 
 0.030177 0.011250  0.002000 23.925380 
 0.030177 0.012500  0.002000 23.868116 
 0.030177 0.013750  0.002000 23.475682 
 0.030177 0.015000  0.002000 22.129519 
 0.035206 0.000000  0.002000 21.308275 
 0.035206 0.001250  0.002000 22.270369 
 0.035206 0.002500  0.002000 22.551349 
 0.035206 0.003750  0.002000 22.610848 
 0.035206 0.005000  0.002000 22.655099 
 0.035206 0.006250  0.002000 22.691783 
 0.035206 0.007500  0.002000 22.746554 
 0.035206 0.008750  0.002000 22.791995 
 0.035206 0.010000  0.002000 22.815937 
 0.035206 0.011250  0.002000 22.819723 
 0.035206 0.012500  0.002000 22.794225 
 0.035206 0.013750  0.002000 22.547690 
 0.035206 0.015000  0.002000 21.592295 
 0.040235 0.000000  0.002000 20.874019 
 0.040235 0.001250  0.002000 21.510558 
 0.040235 0.002500  0.002000 21.679129 
 0.040235 0.003750  0.002000 21.718968 
 0.040235 0.005000  0.002000 21.753482 
 0.040235 0.006250  0.002000 21.783126 
 0.040235 0.007500  0.002000 21.825213 
 0.040235 0.008750  0.002000 21.861592 
 0.040235 0.010000  0.002000 21.882132 
 0.040235 0.011250  0.002000 21.889308 
 0.040235 0.012500  0.002000 21.886759 
 0.040235 0.013750  0.002000 21.750024 
 0.040235 0.015000  0.002000 21.121924 
 0.045265 0.000000  0.002000 20.525544 
 0.045265 0.001250  0.002000 20.905505 
 0.045265 0.002500  0.002000 20.994965 
 0.045265 0.003750  0.002000 21.020296 
 0.045265 0.005000  0.002000 21.045757 
 0.045265 0.006250  0.002000 21.066073 
 0.045265 0.007500  0.002000 21.096333 
 0.045265 0.008750  0.002000 21.124437 
 0.045265 0.010000  0.002000 21.140254 
 0.045265 0.011250  0.002000 21.148682 
 0.045265 0.012500  0.002000 21.160163 
 0.045265 0.013750  0.002000 21.097024 
 0.045265 0.015000  0.002000 20.723891 
 0.050294 0.000000  0.002000 20.268368 
 0.050294 0.001250  0.002000 20.463194 
 0.050294 0.002500  0.002000 20.502630 
 0.050294 0.003750  0.002000 20.517896 
 0.050294 0.005000  0.002000 20.533604 
 0.050294 0.006250  0.002000 20.547925 
 0.050294 0.007500  0.002000 20.566312 
 0.050294 0.008750  0.002000 20.587118 
 0.050294 0.010000  0.002000 20.596354 
 0.050294 0.011250  0.002000 20.605540 
 0.050294 0.012500  0.002000 20.622226 
 0.050294 0.013750  0.002000 20.601660 
 0.050294 0.015000  0.002000 20.408320 
 0.055324 0.000000  0.002000 20.102841 
 0.055324 0.001250  0.002000 20.179748 
 0.055324 0.002500  0.002000 20.191961 
 0.055324 0.003750  0.002000 20.200314 
 0.055324 0.005000  0.002000 20.207630 
 0.055324 0.006250  0.002000 20.217951 
 0.055324 0.007500  0.002000 20.226762 
 0.055324 0.008750  0.002000 20.240009 
 0.055324 0.010000  0.002000 20.243257 
 0.055324 0.011250  0.002000 20.250820 
 0.055324 0.012500  0.002000 20.265890 
 0.055324 0.013750  0.002000 20.265196 
 0.055324 0.015000  0.002000 20.183670 
 0.060353 0.000000  0.002000 20.020391 
 0.060353 0.001250  0.002000 20.037773 
 0.060353 0.002500  0.002000 20.040031 
 0.060353 0.003750  0.002000 20.043642 
 0.060353 0.005000  0.002000 20.045977 
 0.060353 0.006250  0.002000 20.051086 
 0.060353 0.007500  0.002000 20.053586 
 0.060353 0.008750  0.002000 20.058739 
 0.060353 0.010000  0.002000 20.059478 
 0.060353 0.011250  0.002000 20.063634 
 0.060353 0.012500  0.002000 20.074056 
 0.060353 0.013750  0.002000 20.078228 
 0.060353 0.015000  0.002000 20.056102 
 0.065383 0.000000  0.002000 20.000151 
 0.065383 0.001250  0.002000 20.000276 
 0.065383 0.002500  0.002000 20.000298 
 0.065383 0.003750  0.002000 20.000325 
 0.065383 0.005000  0.002000 20.000344 
 0.065383 0.006250  0.002000 20.000380 
 0.065383 0.007500  0.002000 20.000403 
 0.065383 0.008750  0.002000 20.000463 
 0.065383 0.010000  0.002000 20.000674 
 0.065383 0.011250  0.002000 20.001873 
 0.065383 0.012500  0.002000 20.006030 
 0.065383 0.013750  0.002000 20.008182 
 0.065383 0.015000  0.002000 20.006579 
 0.070412 0.000000  0.002000 20.000001 
 0.070412 0.001250  0.002000 20.000001 
 0.070412 0.002500  0.002000 20.000001 
 0.070412 0.003750  0.002000 20.000002 
 0.070412 0.005000  0.002000 20.000002 
 0.070412 0.006250  0.002000 20.000002 
 0.070412 0.007500  0.002000 20.000003 
 0.070412 0.008750  0.002000 20.000009 
 0.070412 0.010000  0.002000 20.000072 
 0.070412 0.011250  0.002000 20.000478 
 0.070412 0.012500  0.002000 20.002030 
 0.070412 0.013750  0.002000 20.001688 
 0.070412 0.015000  0.002000 20.001075 
 0.075441 0.000000  0.002000 20.000000 
 0.075441 0.001250  0.002000 20.000000 
 0.075441 0.002500  0.002000 20.000000 
 0.075441 0.003750  0.002000 20.000000 
 0.075441 0.005000  0.002000 20.000000 
 0.075441 0.006250  0.002000 20.000000 
 0.075441 0.007500  0.002000 20.000000 
 0.075441 0.008750  0.002000 20.000000 
 0.075441 0.010000  0.002000 20.000001 
 0.075441 0.011250  0.002000 20.000004 
 0.075441 0.012500  0.002000 20.000015 
 0.075441 0.013750  0.002000 20.000012 
 0.075441 0.015000  0.002000 20.000008 
 0.080471 0.000000  0.002000 20.000000 
 0.080471 0.001250  0.002000 20.000000 
 0.080471 0.002500  0.002000 20.000000 
 0.080471 0.003750  0.002000 20.000000 
 0.080471 0.005000  0.002000 20.000000 
 0.080471 0.006250  0.002000 20.000000 
 0.080471 0.007500  0.002000 20.000000 
 0.080471 0.008750  0.002000 20.000000 
 0.080471 0.010000  0.002000 20.000000 
 0.080471 0.011250  0.002000 20.000000 
 0.080471 0.012500  0.002000 20.000000 
 0.080471 0.013750  0.002000 20.000000 
 0.080471 0.015000  0.002000 20.000000 
 0.085500 0.000000  0.002000 20.000000 
 0.085500 0.001250  0.002000 20.000000 
 0.085500 0.002500  0.002000 20.000000 
 0.085500 0.003750  0.002000 20.000000 
 0.085500 0.005000  0.002000 20.000000 
 0.085500 0.006250  0.002000 20.000000 
 0.085500 0.007500  0.002000 20.000000 
 0.085500 0.008750  0.002000 20.000000 
 0.085500 0.010000  0.002000 20.000000 
 0.085500 0.011250  0.002000 20.000000 
 0.085500 0.012500  0.002000 20.000000 
 0.085500 0.013750  0.002000 20.000000 
 0.085500 0.015000  0.002000 20.000000 
 0.000000 0.000000  0.003000 21.481824 
 0.000000 0.001250  0.003000 22.614841 
 0.000000 0.002500  0.003000 23.126436 
 0.000000 0.003750  0.003000 23.282807 
 0.000000 0.005000  0.003000 23.336300 
 0.000000 0.006250  0.003000 23.374323 
 0.000000 0.007500  0.003000 23.412766 
 0.000000 0.008750  0.003000 23.438376 
 0.000000 0.010000  0.003000 23.447003 
 0.000000 0.011250  0.003000 23.413987 
 0.000000 0.012500  0.003000 23.278359 
 0.000000 0.013750  0.003000 22.796444 
 0.000000 0.015000  0.003000 21.638945 
 0.005029 0.000000  0.003000 21.228314 
 0.005029 0.001250  0.003000 22.162756 
 0.005029 0.002500  0.003000 22.571429 
 0.005029 0.003750  0.003000 22.691372 
 0.005029 0.005000  0.003000 22.733847 
 0.005029 0.006250  0.003000 22.765809 
 0.005029 0.007500  0.003000 22.799791 
 0.005029 0.008750  0.003000 22.823287 
 0.005029 0.010000  0.003000 22.832874 
 0.005029 0.011250  0.003000 22.810072 