 "TITLE = 2D-Temperature  by Amin zaami" 
VARIABLES = "X", "Y", "Temp" 
zone  N=    2550 E=   2450 F=FEPOINT  ET=QUADRILATERAL  
STRANDID=1, SOLUTIONTIME=  1 
 0.000000 0.000000  20.022940 
 0.000000 0.000510  20.022940 
 0.000000 0.001020  20.022940 
 0.000000 0.001531  20.022940 
 0.000000 0.002041  20.022940 
 0.000000 0.002551  20.022940 
 0.000000 0.003061  20.022940 
 0.000000 0.003571  20.022940 
 0.000000 0.004082  20.022940 
 0.000000 0.004592  20.022940 
 0.000000 0.005102  20.022940 
 0.000000 0.005612  20.022940 
 0.000000 0.006122  20.022940 
 0.000000 0.006633  20.022940 
 0.000000 0.007143  20.022940 
 0.000000 0.007653  20.022940 
 0.000000 0.008163  20.022940 
 0.000000 0.008673  20.022940 
 0.000000 0.009184  20.022940 
 0.000000 0.009694  20.022940 
 0.000000 0.010204  20.022940 
 0.000000 0.010714  20.022940 
 0.000000 0.011224  20.022940 
 0.000000 0.011735  20.022940 
 0.000000 0.012245  20.022940 
 0.000000 0.012755  20.022940 
 0.000000 0.013265  20.022940 
 0.000000 0.013776  20.022940 
 0.000000 0.014286  20.022940 
 0.000000 0.014796  20.022940 
 0.000000 0.015306  20.022940 
 0.000000 0.015816  20.022940 
 0.000000 0.016327  20.022940 
 0.000000 0.016837  20.022940 
 0.000000 0.017347  20.022940 
 0.000000 0.017857  20.022940 
 0.000000 0.018367  20.022940 
 0.000000 0.018878  20.022940 
 0.000000 0.019388  20.022940 
 0.000000 0.019898  20.022940 
 0.000000 0.020408  20.022940 
 0.000000 0.020918  20.022940 
 0.000000 0.021429  20.022940 
 0.000000 0.021939  20.022940 
 0.000000 0.022449  20.022940 
 0.000000 0.022959  20.022940 
 0.000000 0.023469  20.022940 
 0.000000 0.023980  20.022940 
 0.000000 0.024490  20.022940 
 0.000000 0.025000  20.022940 
 0.002342 0.000000  20.022936 
 0.002342 0.000510  20.022936 
 0.002342 0.001020  20.022936 
 0.002342 0.001531  20.022936 
 0.002342 0.002041  20.022936 
 0.002342 0.002551  20.022936 
 0.002342 0.003061  20.022936 
 0.002342 0.003571  20.022936 
 0.002342 0.004082  20.022936 
 0.002342 0.004592  20.022936 
 0.002342 0.005102  20.022936 
 0.002342 0.005612  20.022936 
 0.002342 0.006122  20.022936 
 0.002342 0.006633  20.022936 
 0.002342 0.007143  20.022936 
 0.002342 0.007653  20.022936 
 0.002342 0.008163  20.022936 
 0.002342 0.008673  20.022936 
 0.002342 0.009184  20.022936 
 0.002342 0.009694  20.022936 
 0.002342 0.010204  20.022936 
 0.002342 0.010714  20.022936 
 0.002342 0.011224  20.022936 
 0.002342 0.011735  20.022936 
 0.002342 0.012245  20.022936 
 0.002342 0.012755  20.022936 
 0.002342 0.013265  20.022936 
 0.002342 0.013776  20.022936 
 0.002342 0.014286  20.022936 
 0.002342 0.014796  20.022936 
 0.002342 0.015306  20.022936 
 0.002342 0.015816  20.022936 
 0.002342 0.016327  20.022936 
 0.002342 0.016837  20.022936 
 0.002342 0.017347  20.022936 
 0.002342 0.017857  20.022936 
 0.002342 0.018367  20.022936 
 0.002342 0.018878  20.022936 
 0.002342 0.019388  20.022936 
 0.002342 0.019898  20.022936 
 0.002342 0.020408  20.022936 
 0.002342 0.020918  20.022936 
 0.002342 0.021429  20.022936 
 0.002342 0.021939  20.022936 
 0.002342 0.022449  20.022936 
 0.002342 0.022959  20.022936 
 0.002342 0.023469  20.022936 
 0.002342 0.023980  20.022936 
 0.002342 0.024490  20.022936 
 0.002342 0.025000  20.022936 
 0.004685 0.000000  20.022932 
 0.004685 0.000510  20.022932 
 0.004685 0.001020  20.022932 
 0.004685 0.001531  20.022932 
 0.004685 0.002041  20.022932 
 0.004685 0.002551  20.022932 
 0.004685 0.003061  20.022932 
 0.004685 0.003571  20.022932 
 0.004685 0.004082  20.022932 
 0.004685 0.004592  20.022932 
 0.004685 0.005102  20.022932 
 0.004685 0.005612  20.022932 
 0.004685 0.006122  20.022932 
 0.004685 0.006633  20.022932 
 0.004685 0.007143  20.022932 
 0.004685 0.007653  20.022932 
 0.004685 0.008163  20.022932 
 0.004685 0.008673  20.022932 
 0.004685 0.009184  20.022932 
 0.004685 0.009694  20.022932 
 0.004685 0.010204  20.022932 
 0.004685 0.010714  20.022932 
 0.004685 0.011224  20.022932 
 0.004685 0.011735  20.022932 
 0.004685 0.012245  20.022932 
 0.004685 0.012755  20.022932 
 0.004685 0.013265  20.022932 
 0.004685 0.013776  20.022932 
 0.004685 0.014286  20.022932 
 0.004685 0.014796  20.022932 
 0.004685 0.015306  20.022932 
 0.004685 0.015816  20.022932 
 0.004685 0.016327  20.022932 
 0.004685 0.016837  20.022932 
 0.004685 0.017347  20.022932 
 0.004685 0.017857  20.022932 
 0.004685 0.018367  20.022932 
 0.004685 0.018878  20.022932 
 0.004685 0.019388  20.022932 
 0.004685 0.019898  20.022932 
 0.004685 0.020408  20.022932 
 0.004685 0.020918  20.022932 
 0.004685 0.021429  20.022932 
 0.004685 0.021939  20.022932 
 0.004685 0.022449  20.022932 
 0.004685 0.022959  20.022932 
 0.004685 0.023469  20.022932 
 0.004685 0.023980  20.022932 
 0.004685 0.024490  20.022932 
 0.004685 0.025000  20.022932 
 0.007027 0.000000  20.022928 
 0.007027 0.000510  20.022928 
 0.007027 0.001020  20.022928 
 0.007027 0.001531  20.022928 
 0.007027 0.002041  20.022928 
 0.007027 0.002551  20.022928 
 0.007027 0.003061  20.022928 
 0.007027 0.003571  20.022928 
 0.007027 0.004082  20.022928 
 0.007027 0.004592  20.022928 
 0.007027 0.005102  20.022928 
 0.007027 0.005612  20.022928 
 0.007027 0.006122  20.022928 
 0.007027 0.006633  20.022928 
 0.007027 0.007143  20.022928 
 0.007027 0.007653  20.022928 
 0.007027 0.008163  20.022928 
 0.007027 0.008673  20.022928 
 0.007027 0.009184  20.022928 
 0.007027 0.009694  20.022928 
 0.007027 0.010204  20.022928 
 0.007027 0.010714  20.022928 
 0.007027 0.011224  20.022928 
 0.007027 0.011735  20.022928 
 0.007027 0.012245  20.022928 
 0.007027 0.012755  20.022928 
 0.007027 0.013265  20.022928 
 0.007027 0.013776  20.022928 
 0.007027 0.014286  20.022928 
 0.007027 0.014796  20.022928 
 0.007027 0.015306  20.022928 
 0.007027 0.015816  20.022928 
 0.007027 0.016327  20.022928 
 0.007027 0.016837  20.022928 
 0.007027 0.017347  20.022928 
 0.007027 0.017857  20.022928 
 0.007027 0.018367  20.022928 
 0.007027 0.018878  20.022928 
 0.007027 0.019388  20.022928 
 0.007027 0.019898  20.022928 
 0.007027 0.020408  20.022928 
 0.007027 0.020918  20.022928 
 0.007027 0.021429  20.022928 
 0.007027 0.021939  20.022928 
 0.007027 0.022449  20.022928 
 0.007027 0.022959  20.022928 
 0.007027 0.023469  20.022928 
 0.007027 0.023980  20.022928 
 0.007027 0.024490  20.022928 
 0.007027 0.025000  20.022928 
 0.009370 0.000000  20.022923 
 0.009370 0.000510  20.022923 
 0.009370 0.001020  20.022923 
 0.009370 0.001531  20.022923 
 0.009370 0.002041  20.022923 
 0.009370 0.002551  20.022923 
 0.009370 0.003061  20.022923 
 0.009370 0.003571  20.022923 
 0.009370 0.004082  20.022923 
 0.009370 0.004592  20.022923 
 0.009370 0.005102  20.022923 
 0.009370 0.005612  20.022923 
 0.009370 0.006122  20.022923 
 0.009370 0.006633  20.022923 
 0.009370 0.007143  20.022923 
 0.009370 0.007653  20.022923 
 0.009370 0.008163  20.022923 
 0.009370 0.008673  20.022923 
 0.009370 0.009184  20.022923 
 0.009370 0.009694  20.022923 
 0.009370 0.010204  20.022923 
 0.009370 0.010714  20.022923 
 0.009370 0.011224  20.022923 
 0.009370 0.011735  20.022923 
 0.009370 0.012245  20.022923 
 0.009370 0.012755  20.022923 
 0.009370 0.013265  20.022923 
 0.009370 0.013776  20.022923 
 0.009370 0.014286  20.022923 
 0.009370 0.014796  20.022923 
 0.009370 0.015306  20.022923 
 0.009370 0.015816  20.022923 
 0.009370 0.016327  20.022923 
 0.009370 0.016837  20.022923 
 0.009370 0.017347  20.022923 
 0.009370 0.017857  20.022923 
 0.009370 0.018367  20.022923 
 0.009370 0.018878  20.022923 
 0.009370 0.019388  20.022923 
 0.009370 0.019898  20.022923 
 0.009370 0.020408  20.022923 
 0.009370 0.020918  20.022923 
 0.009370 0.021429  20.022923 
 0.009370 0.021939  20.022923 
 0.009370 0.022449  20.022923 
 0.009370 0.022959  20.022923 
 0.009370 0.023469  20.022923 
 0.009370 0.023980  20.022923 
 0.009370 0.024490  20.022923 
 0.009370 0.025000  20.022923 
 0.011712 0.000000  20.022919 
 0.011712 0.000510  20.022919 
 0.011712 0.001020  20.022919 
 0.011712 0.001531  20.022919 
 0.011712 0.002041  20.022919 
 0.011712 0.002551  20.022919 
 0.011712 0.003061  20.022919 
 0.011712 0.003571  20.022919 
 0.011712 0.004082  20.022919 
 0.011712 0.004592  20.022919 
 0.011712 0.005102  20.022919 
 0.011712 0.005612  20.022919 
 0.011712 0.006122  20.022919 
 0.011712 0.006633  20.022919 
 0.011712 0.007143  20.022919 
 0.011712 0.007653  20.022919 
 0.011712 0.008163  20.022919 
 0.011712 0.008673  20.022919 
 0.011712 0.009184  20.022919 
 0.011712 0.009694  20.022919 
 0.011712 0.010204  20.022919 
 0.011712 0.010714  20.022919 
 0.011712 0.011224  20.022919 
 0.011712 0.011735  20.022919 
 0.011712 0.012245  20.022919 
 0.011712 0.012755  20.022919 
 0.011712 0.013265  20.022919 
 0.011712 0.013776  20.022919 
 0.011712 0.014286  20.022919 
 0.011712 0.014796  20.022919 
 0.011712 0.015306  20.022919 
 0.011712 0.015816  20.022919 
 0.011712 0.016327  20.022919 
 0.011712 0.016837  20.022919 
 0.011712 0.017347  20.022919 
 0.011712 0.017857  20.022919 
 0.011712 0.018367  20.022919 
 0.011712 0.018878  20.022919 
 0.011712 0.019388  20.022919 
 0.011712 0.019898  20.022919 
 0.011712 0.020408  20.022919 
 0.011712 0.020918  20.022919 
 0.011712 0.021429  20.022919 
 0.011712 0.021939  20.022919 
 0.011712 0.022449  20.022919 
 0.011712 0.022959  20.022919 
 0.011712 0.023469  20.022919 
 0.011712 0.023980  20.022919 
 0.011712 0.024490  20.022919 
 0.011712 0.025000  20.022919 
 0.014055 0.000000  20.022915 
 0.014055 0.000510  20.022915 
 0.014055 0.001020  20.022915 
 0.014055 0.001531  20.022915 
 0.014055 0.002041  20.022915 
 0.014055 0.002551  20.022915 
 0.014055 0.003061  20.022915 
 0.014055 0.003571  20.022915 
 0.014055 0.004082  20.022915 
 0.014055 0.004592  20.022915 
 0.014055 0.005102  20.022915 
 0.014055 0.005612  20.022915 
 0.014055 0.006122  20.022915 
 0.014055 0.006633  20.022915 
 0.014055 0.007143  20.022915 
 0.014055 0.007653  20.022915 
 0.014055 0.008163  20.022915 
 0.014055 0.008673  20.022915 
 0.014055 0.009184  20.022915 
 0.014055 0.009694  20.022915 
 0.014055 0.010204  20.022915 
 0.014055 0.010714  20.022915 
 0.014055 0.011224  20.022915 
 0.014055 0.011735  20.022915 
 0.014055 0.012245  20.022915 
 0.014055 0.012755  20.022915 
 0.014055 0.013265  20.022915 
 0.014055 0.013776  20.022915 
 0.014055 0.014286  20.022915 
 0.014055 0.014796  20.022915 
 0.014055 0.015306  20.022915 
 0.014055 0.015816  20.022915 
 0.014055 0.016327  20.022915 
 0.014055 0.016837  20.022915 
 0.014055 0.017347  20.022915 
 0.014055 0.017857  20.022915 
 0.014055 0.018367  20.022915 
 0.014055 0.018878  20.022915 
 0.014055 0.019388  20.022915 
 0.014055 0.019898  20.022915 
 0.014055 0.020408  20.022915 
 0.014055 0.020918  20.022915 
 0.014055 0.021429  20.022915 
 0.014055 0.021939  20.022915 
 0.014055 0.022449  20.022915 
 0.014055 0.022959  20.022915 
 0.014055 0.023469  20.022915 
 0.014055 0.023980  20.022915 
 0.014055 0.024490  20.022915 
 0.014055 0.025000  20.022915 
 0.016397 0.000000  20.022910 
 0.016397 0.000510  20.022910 
 0.016397 0.001020  20.022910 
 0.016397 0.001531  20.022910 
 0.016397 0.002041  20.022910 
 0.016397 0.002551  20.022910 
 0.016397 0.003061  20.022910 
 0.016397 0.003571  20.022910 
 0.016397 0.004082  20.022910 
 0.016397 0.004592  20.022910 
 0.016397 0.005102  20.022910 
 0.016397 0.005612  20.022910 
 0.016397 0.006122  20.022910 
 0.016397 0.006633  20.022910 
 0.016397 0.007143  20.022910 
 0.016397 0.007653  20.022910 
 0.016397 0.008163  20.022910 
 0.016397 0.008673  20.022910 
 0.016397 0.009184  20.022910 
 0.016397 0.009694  20.022910 
 0.016397 0.010204  20.022910 
 0.016397 0.010714  20.022910 
 0.016397 0.011224  20.022910 
 0.016397 0.011735  20.022910 
 0.016397 0.012245  20.022910 
 0.016397 0.012755  20.022910 
 0.016397 0.013265  20.022910 
 0.016397 0.013776  20.022910 
 0.016397 0.014286  20.022910 
 0.016397 0.014796  20.022910 
 0.016397 0.015306  20.022910 
 0.016397 0.015816  20.022910 
 0.016397 0.016327  20.022910 
 0.016397 0.016837  20.022910 
 0.016397 0.017347  20.022910 
 0.016397 0.017857  20.022910 
 0.016397 0.018367  20.022910 
 0.016397 0.018878  20.022910 
 0.016397 0.019388  20.022910 
 0.016397 0.019898  20.022910 
 0.016397 0.020408  20.022910 
 0.016397 0.020918  20.022910 
 0.016397 0.021429  20.022910 
 0.016397 0.021939  20.022910 
 0.016397 0.022449  20.022910 
 0.016397 0.022959  20.022910 
 0.016397 0.023469  20.022910 
 0.016397 0.023980  20.022910 
 0.016397 0.024490  20.022910 
 0.016397 0.025000  20.022910 
 0.018740 0.000000  20.022906 
 0.018740 0.000510  20.022906 
 0.018740 0.001020  20.022906 
 0.018740 0.001531  20.022906 
 0.018740 0.002041  20.022906 
 0.018740 0.002551  20.022906 
 0.018740 0.003061  20.022906 
 0.018740 0.003571  20.022906 
 0.018740 0.004082  20.022906 
 0.018740 0.004592  20.022906 
 0.018740 0.005102  20.022906 
 0.018740 0.005612  20.022906 
 0.018740 0.006122  20.022906 
 0.018740 0.006633  20.022906 
 0.018740 0.007143  20.022906 
 0.018740 0.007653  20.022906 
 0.018740 0.008163  20.022906 
 0.018740 0.008673  20.022906 
 0.018740 0.009184  20.022906 
 0.018740 0.009694  20.022906 
 0.018740 0.010204  20.022906 
 0.018740 0.010714  20.022906 
 0.018740 0.011224  20.022906 
 0.018740 0.011735  20.022906 
 0.018740 0.012245  20.022906 
 0.018740 0.012755  20.022906 
 0.018740 0.013265  20.022906 
 0.018740 0.013776  20.022906 
 0.018740 0.014286  20.022906 
 0.018740 0.014796  20.022906 
 0.018740 0.015306  20.022906 
 0.018740 0.015816  20.022906 
 0.018740 0.016327  20.022906 
 0.018740 0.016837  20.022906 
 0.018740 0.017347  20.022906 
 0.018740 0.017857  20.022906 
 0.018740 0.018367  20.022906 
 0.018740 0.018878  20.022906 
 0.018740 0.019388  20.022906 
 0.018740 0.019898  20.022906 
 0.018740 0.020408  20.022906 
 0.018740 0.020918  20.022906 
 0.018740 0.021429  20.022906 
 0.018740 0.021939  20.022906 
 0.018740 0.022449  20.022906 
 0.018740 0.022959  20.022906 
 0.018740 0.023469  20.022906 
 0.018740 0.023980  20.022906 
 0.018740 0.024490  20.022906 
 0.018740 0.025000  20.022906 
 0.021082 0.000000  20.022902 
 0.021082 0.000510  20.022902 
 0.021082 0.001020  20.022902 
 0.021082 0.001531  20.022902 
 0.021082 0.002041  20.022902 
 0.021082 0.002551  20.022902 
 0.021082 0.003061  20.022902 
 0.021082 0.003571  20.022902 
 0.021082 0.004082  20.022902 
 0.021082 0.004592  20.022902 
 0.021082 0.005102  20.022902 
 0.021082 0.005612  20.022902 
 0.021082 0.006122  20.022902 
 0.021082 0.006633  20.022902 
 0.021082 0.007143  20.022902 
 0.021082 0.007653  20.022902 
 0.021082 0.008163  20.022902 
 0.021082 0.008673  20.022902 
 0.021082 0.009184  20.022902 
 0.021082 0.009694  20.022902 
 0.021082 0.010204  20.022902 
 0.021082 0.010714  20.022902 
 0.021082 0.011224  20.022902 
 0.021082 0.011735  20.022902 
 0.021082 0.012245  20.022902 
 0.021082 0.012755  20.022902 
 0.021082 0.013265  20.022902 
 0.021082 0.013776  20.022902 
 0.021082 0.014286  20.022902 
 0.021082 0.014796  20.022902 
 0.021082 0.015306  20.022902 
 0.021082 0.015816  20.022902 
 0.021082 0.016327  20.022902 
 0.021082 0.016837  20.022902 
 0.021082 0.017347  20.022902 
 0.021082 0.017857  20.022902 
 0.021082 0.018367  20.022902 
 0.021082 0.018878  20.022902 
 0.021082 0.019388  20.022902 
 0.021082 0.019898  20.022902 
 0.021082 0.020408  20.022902 
 0.021082 0.020918  20.022902 
 0.021082 0.021429  20.022902 
 0.021082 0.021939  20.022902 
 0.021082 0.022449  20.022902 
 0.021082 0.022959  20.022902 
 0.021082 0.023469  20.022902 
 0.021082 0.023980  20.022902 
 0.021082 0.024490  20.022902 
 0.021082 0.025000  20.022902 
 0.023425 0.000000  20.022898 
 0.023425 0.000510  20.022898 
 0.023425 0.001020  20.022898 
 0.023425 0.001531  20.022898 
 0.023425 0.002041  20.022898 
 0.023425 0.002551  20.022898 
 0.023425 0.003061  20.022898 
 0.023425 0.003571  20.022898 
 0.023425 0.004082  20.022898 
 0.023425 0.004592  20.022898 
 0.023425 0.005102  20.022898 
 0.023425 0.005612  20.022898 
 0.023425 0.006122  20.022898 
 0.023425 0.006633  20.022898 
 0.023425 0.007143  20.022898 
 0.023425 0.007653  20.022898 
 0.023425 0.008163  20.022898 
 0.023425 0.008673  20.022898 
 0.023425 0.009184  20.022898 
 0.023425 0.009694  20.022898 
 0.023425 0.010204  20.022898 
 0.023425 0.010714  20.022898 
 0.023425 0.011224  20.022898 
 0.023425 0.011735  20.022898 
 0.023425 0.012245  20.022898 
 0.023425 0.012755  20.022898 
 0.023425 0.013265  20.022898 
 0.023425 0.013776  20.022898 
 0.023425 0.014286  20.022898 
 0.023425 0.014796  20.022898 
 0.023425 0.015306  20.022898 
 0.023425 0.015816  20.022898 
 0.023425 0.016327  20.022898 
 0.023425 0.016837  20.022898 
 0.023425 0.017347  20.022898 
 0.023425 0.017857  20.022898 
 0.023425 0.018367  20.022898 
 0.023425 0.018878  20.022898 
 0.023425 0.019388  20.022898 
 0.023425 0.019898  20.022898 
 0.023425 0.020408  20.022898 
 0.023425 0.020918  20.022898 
 0.023425 0.021429  20.022898 
 0.023425 0.021939  20.022898 
 0.023425 0.022449  20.022898 
 0.023425 0.022959  20.022898 
 0.023425 0.023469  20.022898 
 0.023425 0.023980  20.022898 
 0.023425 0.024490  20.022898 
 0.023425 0.025000  20.022898 
 0.025767 0.000000  20.022893 
 0.025767 0.000510  20.022893 
 0.025767 0.001020  20.022893 
 0.025767 0.001531  20.022893 
 0.025767 0.002041  20.022893 
 0.025767 0.002551  20.022893 
 0.025767 0.003061  20.022893 
 0.025767 0.003571  20.022893 
 0.025767 0.004082  20.022893 
 0.025767 0.004592  20.022893 
 0.025767 0.005102  20.022893 
 0.025767 0.005612  20.022893 
 0.025767 0.006122  20.022893 
 0.025767 0.006633  20.022893 
 0.025767 0.007143  20.022893 
 0.025767 0.007653  20.022893 
 0.025767 0.008163  20.022893 
 0.025767 0.008673  20.022893 
 0.025767 0.009184  20.022895 
 0.025767 0.009694  20.022895 
 0.025767 0.010204  20.022895 
 0.025767 0.010714  20.022893 
 0.025767 0.011224  20.022893 
 0.025767 0.011735  20.022893 
 0.025767 0.012245  20.022893 
 0.025767 0.012755  20.022893 
 0.025767 0.013265  20.022893 
 0.025767 0.013776  20.022893 
 0.025767 0.014286  20.022893 
 0.025767 0.014796  20.022893 
 0.025767 0.015306  20.022893 
 0.025767 0.015816  20.022893 
 0.025767 0.016327  20.022893 
 0.025767 0.016837  20.022893 
 0.025767 0.017347  20.022893 
 0.025767 0.017857  20.022893 
 0.025767 0.018367  20.022893 
 0.025767 0.018878  20.022893 
 0.025767 0.019388  20.022893 
 0.025767 0.019898  20.022893 
 0.025767 0.020408  20.022893 
 0.025767 0.020918  20.022893 
 0.025767 0.021429  20.022893 
 0.025767 0.021939  20.022893 
 0.025767 0.022449  20.022893 
 0.025767 0.022959  20.022893 
 0.025767 0.023469  20.022893 
 0.025767 0.023980  20.022893 
 0.025767 0.024490  20.022893 
 0.025767 0.025000  20.022893 
 0.028110 0.000000  20.022889 
 0.028110 0.000510  20.022889 
 0.028110 0.001020  20.022889 
 0.028110 0.001531  20.022889 
 0.028110 0.002041  20.022889 
 0.028110 0.002551  20.022889 
 0.028110 0.003061  20.022889 
 0.028110 0.003571  20.022889 
 0.028110 0.004082  20.022889 
 0.028110 0.004592  20.022889 
 0.028110 0.005102  20.022889 
 0.028110 0.005612  20.022889 
 0.028110 0.006122  20.022889 
 0.028110 0.006633  20.022889 
 0.028110 0.007143  20.022889 
 0.028110 0.007653  20.022889 
 0.028110 0.008163  20.022889 
 0.028110 0.008673  20.022903 
 0.028110 0.009184  20.023857 
 0.028110 0.009694  20.023959 
 0.028110 0.010204  20.023850 
 0.028110 0.010714  20.022904 
 0.028110 0.011224  20.022891 
 0.028110 0.011735  20.022890 
 0.028110 0.012245  20.022891 
 0.028110 0.012755  20.022890 
 0.028110 0.013265  20.022890 
 0.028110 0.013776  20.022890 
 0.028110 0.014286  20.022889 
 0.028110 0.014796  20.022889 
 0.028110 0.015306  20.022889 
 0.028110 0.015816  20.022889 
 0.028110 0.016327  20.022889 
 0.028110 0.016837  20.022889 
 0.028110 0.017347  20.022889 
 0.028110 0.017857  20.022889 
 0.028110 0.018367  20.022889 
 0.028110 0.018878  20.022889 
 0.028110 0.019388  20.022889 
 0.028110 0.019898  20.022889 
 0.028110 0.020408  20.022889 
 0.028110 0.020918  20.022889 
 0.028110 0.021429  20.022889 
 0.028110 0.021939  20.022889 
 0.028110 0.022449  20.022889 
 0.028110 0.022959  20.022889 
 0.028110 0.023469  20.022889 
 0.028110 0.023980  20.022889 
 0.028110 0.024490  20.022889 
 0.028110 0.025000  20.022889 
 0.030452 0.000000  20.022885 
 0.030452 0.000510  20.022885 
 0.030452 0.001020  20.022885 
 0.030452 0.001531  20.022885 
 0.030452 0.002041  20.022885 
 0.030452 0.002551  20.022885 
 0.030452 0.003061  20.022885 
 0.030452 0.003571  20.022885 
 0.030452 0.004082  20.022885 
 0.030452 0.004592  20.022885 
 0.030452 0.005102  20.022885 
 0.030452 0.005612  20.022885 
 0.030452 0.006122  20.022885 
 0.030452 0.006633  20.022885 
 0.030452 0.007143  20.022885 
 0.030452 0.007653  20.022885 
 0.030452 0.008163  20.022932 
 0.030452 0.008673  20.029137 
 0.030452 0.009184  20.872976 
 0.030452 0.009694  20.957790 
 0.030452 0.010204  20.867315 
 0.030452 0.010714  20.029808 
 0.030452 0.011224  20.024789 
 0.030452 0.011735  20.023827 
 0.030452 0.012245  20.024249 
 0.030452 0.012755  20.024043 
 0.030452 0.013265  20.023974 
 0.030452 0.013776  20.023702 
 0.030452 0.014286  20.022898 
 0.030452 0.014796  20.022886 
 0.030452 0.015306  20.022887 
 0.030452 0.015816  20.022886 
 0.030452 0.016327  20.022886 
 0.030452 0.016837  20.022886 
 0.030452 0.017347  20.022885 
 0.030452 0.017857  20.022885 
 0.030452 0.018367  20.022885 
 0.030452 0.018878  20.022885 
 0.030452 0.019388  20.022885 
 0.030452 0.019898  20.022885 
 0.030452 0.020408  20.022885 
 0.030452 0.020918  20.022885 
 0.030452 0.021429  20.022885 
 0.030452 0.021939  20.022885 
 0.030452 0.022449  20.022885 
 0.030452 0.022959  20.022885 
 0.030452 0.023469  20.022885 
 0.030452 0.023980  20.022885 
 0.030452 0.024490  20.022885 
 0.030452 0.025000  20.022885 
 0.032795 0.000000  20.022881 
 0.032795 0.000510  20.022881 
 0.032795 0.001020  20.022881 
 0.032795 0.001531  20.022881 
 0.032795 0.002041  20.022881 
 0.032795 0.002551  20.022881 
 0.032795 0.003061  20.022881 
 0.032795 0.003571  20.022881 
 0.032795 0.004082  20.022881 
 0.032795 0.004592  20.022881 
 0.032795 0.005102  20.022881 
 0.032795 0.005612  20.022881 
 0.032795 0.006122  20.022881 
 0.032795 0.006633  20.022881 
 0.032795 0.007143  20.022881 
 0.032795 0.007653  20.022893 
 0.032795 0.008163  20.023792 
 0.032795 0.008673  20.036353 
 0.032795 0.009184  20.874452 
 0.032795 0.009694  21.772106 
 0.032795 0.010204  20.872246 
 0.032795 0.010714  20.655252 
 0.032795 0.011224  21.658475 
 0.032795 0.011735  20.835935 
 0.032795 0.012245  21.217671 
 0.032795 0.012755  21.032903 
 0.032795 0.013265  20.974640 
 0.032795 0.013776  20.739219 
 0.032795 0.014286  20.029349 
 0.032795 0.014796  20.024144 
 0.032795 0.015306  20.024349 
 0.032795 0.015816  20.024029 
 0.032795 0.016327  20.024200 
 0.032795 0.016837  20.023706 
 0.032795 0.017347  20.022894 
 0.032795 0.017857  20.022882 
 0.032795 0.018367  20.022882 
 0.032795 0.018878  20.022881 
 0.032795 0.019388  20.022883 
 0.032795 0.019898  20.022881 
 0.032795 0.020408  20.022882 
 0.032795 0.020918  20.022882 
 0.032795 0.021429  20.022882 
 0.032795 0.021939  20.022881 
 0.032795 0.022449  20.022881 
 0.032795 0.022959  20.022881 
 0.032795 0.023469  20.022881 
 0.032795 0.023980  20.022881 
 0.032795 0.024490  20.022881 
 0.032795 0.025000  20.022881 
 0.035137 0.000000  20.022876 
 0.035137 0.000510  20.022876 
 0.035137 0.001020  20.022876 
 0.035137 0.001531  20.022876 
 0.035137 0.002041  20.022876 
 0.035137 0.002551  20.022876 
 0.035137 0.003061  20.022876 
 0.035137 0.003571  20.022876 
 0.035137 0.004082  20.022876 
 0.035137 0.004592  20.022876 
 0.035137 0.005102  20.022876 
 0.035137 0.005612  20.022876 
 0.035137 0.006122  20.022876 
 0.035137 0.006633  20.022877 
 0.035137 0.007143  20.022913 
 0.035137 0.007653  20.027874 
 0.035137 0.008163  20.702345 
 0.035137 0.008673  20.980931 
 0.035137 0.009184  21.918063 
 0.035137 0.009694  22.572024 
 0.035137 0.010204  20.884050 
 0.035137 0.010714  20.665350 
 0.035137 0.011224  21.645891 
 0.035137 0.011735  20.845370 
 0.035137 0.012245  21.214868 
 0.035137 0.012755  21.034654 
 0.035137 0.013265  20.978660 
 0.035137 0.013776  21.408316 
 0.035137 0.014286  21.089213 
 0.035137 0.014796  21.090781 
 0.035137 0.015306  21.308174 
 0.035137 0.015816  21.021718 
 0.035137 0.016327  21.178662 
 0.035137 0.016837  20.745000 
 0.035137 0.017347  20.029230 
 0.035137 0.017857  20.024079 
 0.035137 0.018367  20.023855 
 0.035137 0.018878  20.023500 
 0.035137 0.019388  20.025288 
 0.035137 0.019898  20.023544 
 0.035137 0.020408  20.024133 
 0.035137 0.020918  20.023955 
 0.035137 0.021429  20.023881 
 0.035137 0.021939  20.022892 
 0.035137 0.022449  20.022878 
 0.035137 0.022959  20.022878 
 0.035137 0.023469  20.022878 
 0.035137 0.023980  20.022878 
 0.035137 0.024490  20.022878 
 0.035137 0.025000  20.022877 
 0.037480 0.000000  20.022872 
 0.037480 0.000510  20.022872 
 0.037480 0.001020  20.022872 
 0.037480 0.001531  20.022872 
 0.037480 0.002041  20.022872 
 0.037480 0.002551  20.022872 
 0.037480 0.003061  20.022872 
 0.037480 0.003571  20.022872 
 0.037480 0.004082  20.022872 
 0.037480 0.004592  20.022872 
 0.037480 0.005102  20.022872 
 0.037480 0.005612  20.022872 
 0.037480 0.006122  20.022872 
 0.037480 0.006633  20.022873 
 0.037480 0.007143  20.022990 
 0.037480 0.007653  20.033360 
 0.037480 0.008163  20.700684 
 0.037480 0.008673  20.987028 
 0.037480 0.009184  21.920606 
 0.037480 0.009694  23.156539 
 0.037480 0.010204  21.790987 
 0.037480 0.010714  21.800998 
 0.037480 0.011224  22.492956 
 0.037480 0.011735  21.621091 
 0.037480 0.012245  22.534741 
 0.037480 0.012755  21.924573 
 0.037480 0.013265  21.493295 
 0.037480 0.013776  21.407472 
 0.037480 0.014286  21.092439 
 0.037480 0.014796  21.093523 
 0.037480 0.015306  21.305861 
 0.037480 0.015816  21.026178 
 0.037480 0.016327  21.180582 
 0.037480 0.016837  21.439259 
 0.037480 0.017347  20.950466 
 0.037480 0.017857  21.040796 
 0.037480 0.018367  20.877903 
 0.037480 0.018878  20.553115 
 0.037480 0.019388  22.150540 
 0.037480 0.019898  20.590294 
 0.037480 0.020408  21.124930 
 0.037480 0.020918  20.963345 
 0.037480 0.021429  20.905978 
 0.037480 0.021939  20.030039 
 0.037480 0.022449  20.024437 
 0.037480 0.022959  20.024110 
 0.037480 0.023469  20.024284 
 0.037480 0.023980  20.024023 
 0.037480 0.024490  20.024043 
 0.037480 0.025000  20.023745 
 0.039822 0.000000  20.022868 
 0.039822 0.000510  20.022868 
 0.039822 0.001020  20.022868 
 0.039822 0.001531  20.022868 
 0.039822 0.002041  20.022868 
 0.039822 0.002551  20.022868 
 0.039822 0.003061  20.022868 
 0.039822 0.003571  20.022868 
 0.039822 0.004082  20.022868 
 0.039822 0.004592  20.022868 
 0.039822 0.005102  20.022868 
 0.039822 0.005612  20.022868 
 0.039822 0.006122  20.022868 
 0.039822 0.006633  20.022899 
 0.039822 0.007143  20.026936 
 0.039822 0.007653  20.561409 
 0.039822 0.008163  21.837924 
 0.039822 0.008673  22.266271 
 0.039822 0.009184  22.488879 
 0.039822 0.009694  23.969570 
 0.039822 0.010204  22.659559 
 0.039822 0.010714  21.812365 
 0.039822 0.011224  22.482014 
 0.039822 0.011735  21.635835 
 0.039822 0.012245  22.523941 
 0.039822 0.012755  21.932522 
 0.039822 0.013265  22.322070 
 0.039822 0.013776  22.386784 
 0.039822 0.014286  22.032821 
 0.039822 0.014796  22.292385 
 0.039822 0.015306  22.692424 
 0.039822 0.015816  22.267517 
 0.039822 0.016327  22.370459 
 0.039822 0.016837  22.383193 
 0.039822 0.017347  21.934986 
 0.039822 0.017857  21.853366 
 0.039822 0.018367  20.883686 
 0.039822 0.018878  20.568431 
 0.039822 0.019388  22.128707 
 0.039822 0.019898  20.606412 
 0.039822 0.020408  21.127189 
 0.039822 0.020918  21.796106 
 0.039822 0.021429  20.910267 
 0.039822 0.021939  20.622037 
 0.039822 0.022449  21.354209 
 0.039822 0.022959  21.099833 
 0.039822 0.023469  21.257821 
 0.039822 0.023980  21.025508 
 0.039822 0.024490  21.046806 
 0.039822 0.025000  20.782891 
 0.042165 0.000000  20.022864 
 0.042165 0.000510  20.022864 
 0.042165 0.001020  20.022864 
 0.042165 0.001531  20.022864 
 0.042165 0.002041  20.022864 
 0.042165 0.002551  20.022864 
 0.042165 0.003061  20.022864 
 0.042165 0.003571  20.022864 
 0.042165 0.004082  20.022864 
 0.042165 0.004592  20.022864 
 0.042165 0.005102  20.022864 
 0.042165 0.005612  20.022864 
 0.042165 0.006122  20.022865 
 0.042165 0.006633  20.022964 
 0.042165 0.007143  20.031637 
 0.042165 0.007653  20.568159 
 0.042165 0.008163  21.832578 
 0.042165 0.008673  22.265856 
 0.042165 0.009184  22.505177 
 0.042165 0.009694  24.831705 
 0.042165 0.010204  23.584802 
 0.042165 0.010714  22.179762 
 0.042165 0.011224  23.176259 
 0.042165 0.011735  23.510453 
 0.042165 0.012245  23.112449 
 0.042165 0.012755  22.815057 
 0.042165 0.013265  23.376855 
 0.042165 0.013776  23.297902 
 0.042165 0.014286  22.707082 
 0.042165 0.014796  22.299151 
 0.042165 0.015306  22.687060 
 0.042165 0.015816  22.272370 