 "TITLE = 2D-Temperature  by Amin zaami" 
VARIABLES = "X", "Y", "Temp" 
zone  N=    60 E=   42 F=FEPOINT  ET=QUADRILATERAL  
STRANDID=1, SOLUTIONTIME=  1 
 0.000000 0.000000  173.661672 
 0.000000 0.000200  144.420695 
 0.000000 0.000400  123.101342 
 0.000000 0.000600  108.447666 
 0.000893 0.000000  198.237565 
 0.000893 0.000200  161.748743 
 0.000893 0.000400  133.898799 
 0.000893 0.000600  117.211426 
 0.001786 0.000000  209.615043 
 0.001786 0.000200  165.691387 
 0.001786 0.000400  130.182255 
 0.001786 0.000600  112.786391 
 0.002679 0.000000  185.460111 
 0.002679 0.000200  154.837356 
 0.002679 0.000400  133.678412 
 0.002679 0.000600  118.699439 
 0.003571 0.000000  199.868152 
 0.003571 0.000200  163.977908 
 0.003571 0.000400  138.844578 
 0.003571 0.000600  123.871171 
 0.004464 0.000000  186.853210 
 0.004464 0.000200  154.644984 
 0.004464 0.000400  133.429203 
 0.004464 0.000600  120.537756 
 0.005357 0.000000  199.381935 
 0.005357 0.000200  170.715790 
 0.005357 0.000400  153.491105 
 0.005357 0.000600  138.360370 
 0.006250 0.000000  186.126086 
 0.006250 0.000200  166.959883 
 0.006250 0.000400  159.813474 
 0.006250 0.000600  145.873328 
 0.007143 0.000000  182.844499 
 0.007143 0.000200  163.844203 
 0.007143 0.000400  156.698153 
 0.007143 0.000600  143.216278 
 0.008036 0.000000  194.892787 
 0.008036 0.000200  174.821876 
 0.008036 0.000400  167.615791 
 0.008036 0.000600  153.164679 
 0.008929 0.000000  164.562909 
 0.008929 0.000200  153.280137 
 0.008929 0.000400  154.316358 
 0.008929 0.000600  142.829703 
 0.009821 0.000000  191.544683 
 0.009821 0.000200  167.427779 
 0.009821 0.000400  155.459901 
 0.009821 0.000600  141.475013 
 0.010714 0.000000  167.660395 
 0.010714 0.000200  158.561118 
 0.010714 0.000400  157.732433 
 0.010714 0.000600  143.863483 
 0.011607 0.000000  177.897491 
 0.011607 0.000200  153.493542 
 0.011607 0.000400  135.254418 
 0.011607 0.000600  120.149186 
 0.012500 0.000000  188.877515 
 0.012500 0.000200  140.218697 
 0.012500 0.000400  98.324181 
 0.012500 0.000600  83.193690 
 1 2 6 5 
 2 3 7 6 
 3 4 8 7 
 5 6 10 9 
 6 7 11 10 
 7 8 12 11 
 9 10 14 13 
 10 11 15 14 
 11 12 16 15 
 13 14 18 17 
 14 15 19 18 
 15 16 20 19 
 17 18 22 21 
 18 19 23 22 
 19 20 24 23 
 21 22 26 25 
 22 23 27 26 
 23 24 28 27 
 25 26 30 29 
 26 27 31 30 
 27 28 32 31 
 29 30 34 33 
 30 31 35 34 
 31 32 36 35 
 33 34 38 37 
 34 35 39 38 
 35 36 40 39 
 37 38 42 41 
 38 39 43 42 
 39 40 44 43 
 41 42 46 45 
 42 43 47 46 
 43 44 48 47 
 45 46 50 49 
 46 47 51 50 
 47 48 52 51 
 49 50 54 53 
 50 51 55 54 
 51 52 56 55 
 53 54 58 57 
 54 55 59 58 
 55 56 60 59 
 "TITLE = 2D-Temperature  by Amin zaami" 
VARIABLES = "X", "Y", "Temp" 
zone  N=    60 E=   42 F=FEPOINT  ET=QUADRILATERAL  
STRANDID=1, SOLUTIONTIME=  2 
 0.000000 0.000000  175.232025 
 0.000000 0.000200  136.493600 
 0.000000 0.000400  123.515357 
 0.000000 0.000600  111.335790 
 0.000893 0.000000  199.112700 
 0.000893 0.000200  152.271614 
 0.000893 0.000400  134.679570 
 0.000893 0.000600  120.320099 
 0.001786 0.000000  209.527024 
 0.001786 0.000200  155.685375 
 0.001786 0.000400  132.491096 
 0.001786 0.000600  116.697766 
 0.002679 0.000000  187.334572 
 0.002679 0.000200  146.537658 
 0.002679 0.000400  133.829538 
 0.002679 0.000600  121.404121 
 0.003571 0.000000  200.847052 
 0.003571 0.000200  154.746887 
 0.003571 0.000400  139.419235 
 0.003571 0.000600  126.519398 
 0.004464 0.000000  188.503452 
 0.004464 0.000200  146.697451 
 0.004464 0.000400  134.212616 
 0.004464 0.000600  123.124520 
 0.005357 0.000000  201.508974 
 0.005357 0.000200  161.468588 
 0.005357 0.000400  152.414074 
 0.005357 0.000600  140.500157 
 0.006250 0.000000  189.648302 
 0.006250 0.000200  158.627961 
 0.006250 0.000400  157.151961 
 0.006250 0.000600  147.314804 
 0.007143 0.000000  186.365201 
 0.007143 0.000200  155.861291 
 0.007143 0.000400  154.430624 
 0.007143 0.000600  144.913662 
 0.008036 0.000000  198.117519 
 0.008036 0.000200  165.757543 
 0.008036 0.000400  164.543538 
 0.008036 0.000600  154.432564 
 0.008929 0.000000  169.078830 
 0.008929 0.000200  146.535854 
 0.008929 0.000400  151.008463 
 0.008929 0.000600  143.807968 
 0.009821 0.000000  193.978143 
 0.009821 0.000200  158.652991 
 0.009821 0.000400  153.739524 
 0.009821 0.000600  143.316905 
 0.010714 0.000000  172.244200 
 0.010714 0.000200  150.477091 
 0.010714 0.000400  153.733343 
 0.010714 0.000600  144.828803 
 0.011607 0.000000  180.077319 
 0.011607 0.000200  144.634611 
 0.011607 0.000400  134.500149 
 0.011607 0.000600  122.510038 
 0.012500 0.000000  187.589145 
 0.012500 0.000200  131.593499 
 0.012500 0.000400  102.911238 
 0.012500 0.000600  87.699281 
 1 2 6 5 
 2 3 7 6 
 3 4 8 7 
 5 6 10 9 
 6 7 11 10 
 7 8 12 11 
 9 10 14 13 
 10 11 15 14 
 11 12 16 15 
 13 14 18 17 
 14 15 19 18 
 15 16 20 19 
 17 18 22 21 
 18 19 23 22 
 19 20 24 23 
 21 22 26 25 
 22 23 27 26 
 23 24 28 27 
 25 26 30 29 
 26 27 31 30 
 27 28 32 31 
 29 30 34 33 
 30 31 35 34 
 31 32 36 35 
 33 34 38 37 
 34 35 39 38 
 35 36 40 39 
 37 38 42 41 
 38 39 43 42 
 39 40 44 43 
 41 42 46 45 
 42 43 47 46 
 43 44 48 47 
 45 46 50 49 
 46 47 51 50 
 47 48 52 51 
 49 50 54 53 
 50 51 55 54 
 51 52 56 55 
 53 54 58 57 
 54 55 59 58 
 55 56 60 59 
 "TITLE = 2D-Temperature  by Amin zaami" 
VARIABLES = "X", "Y", "Temp" 
zone  N=    60 E=   42 F=FEPOINT  ET=QUADRILATERAL  
STRANDID=1, SOLUTIONTIME=  3 
 0.000000 0.000000  175.819332 
 0.000000 0.000200  131.590404 
 0.000000 0.000400  123.274550 
 0.000000 0.000600  113.604323 
 0.000893 0.000000  198.926854 
 0.000893 0.000200  146.334618 
 0.000893 0.000400  134.515233 
 0.000893 0.000600  122.778801 
 0.001786 0.000000  208.476316 
 0.001786 0.000200  149.503985 
 0.001786 0.000400  133.353043 
 0.001786 0.000600  119.972655 
 0.002679 0.000000  188.133259 
 0.002679 0.000200  141.380941 
 0.002679 0.000400  133.356115 
 0.002679 0.000600  123.490868 
 0.003571 0.000000  200.788977 
 0.003571 0.000200  148.952132 
 0.003571 0.000400  139.070744 
 0.003571 0.000600  128.579154 
 0.004464 0.000000  189.167380 
 0.004464 0.000200  141.817140 
 0.004464 0.000400  134.151035 
 0.004464 0.000600  125.195640 
 0.005357 0.000000  202.441464 
 0.005357 0.000200  155.574037 
 0.005357 0.000400  150.898552 
 0.005357 0.000600  141.902604 
 0.006250 0.000000  191.876488 
 0.006250 0.000200  153.264016 
 0.006250 0.000400  154.618383 
 0.006250 0.000600  147.964287 
 0.007143 0.000000  188.643149 
 0.007143 0.000200  150.773598 
 0.007143 0.000400  152.218488 
 0.007143 0.000600  145.811644 
 0.008036 0.000000  200.019170 
 0.008036 0.000200  159.843305 
 0.008036 0.000400  161.601528 
 0.008036 0.000600  154.847652 
 0.008929 0.000000  172.333015 
 0.008929 0.000200  142.214405 
 0.008929 0.000400  148.185737 
 0.008929 0.000600  144.039006 
 0.009821 0.000000  195.244602 
 0.009821 0.000200  153.013690 
 0.009821 0.000400  151.780326 
 0.009821 0.000600  144.370940 
 0.010714 0.000000  175.401424 
 0.010714 0.000200  145.216860 
 0.010714 0.000400  150.306436 
 0.010714 0.000600  144.927733 
 0.011607 0.000000  181.090581 
 0.011607 0.000200  139.044949 
 0.011607 0.000400  133.301770 
 0.011607 0.000600  124.165269 
 0.012500 0.000000  185.653609 
 0.012500 0.000200  126.470240 
 0.012500 0.000400  105.536810 
 0.012500 0.000600  91.827713 
 1 2 6 5 
 2 3 7 6 
 3 4 8 7 
 5 6 10 9 
 6 7 11 10 
 7 8 12 11 
 9 10 14 13 
 10 11 15 14 
 11 12 16 15 
 13 14 18 17 
 14 15 19 18 
 15 16 20 19 
 17 18 22 21 
 18 19 23 22 
 19 20 24 23 
 21 22 26 25 
 22 23 27 26 
 23 24 28 27 
 25 26 30 29 
 26 27 31 30 
 27 28 32 31 
 29 30 34 33 
 30 31 35 34 
 31 32 36 35 
 33 34 38 37 
 34 35 39 38 
 35 36 40 39 
 37 38 42 41 
 38 39 43 42 
 39 40 44 43 
 41 42 46 45 
 42 43 47 46 
 43 44 48 47 
 45 46 50 49 
 46 47 51 50 
 47 48 52 51 
 49 50 54 53 
 50 51 55 54 
 51 52 56 55 
 53 54 58 57 
 54 55 59 58 
 55 56 60 59 
 "TITLE = 2D-Temperature  by Amin zaami" 
VARIABLES = "X", "Y", "Temp" 
zone  N=    60 E=   42 F=FEPOINT  ET=QUADRILATERAL  
STRANDID=1, SOLUTIONTIME=  4 
 0.000000 0.000000  175.826051 
 0.000000 0.000200  128.459293 
 0.000000 0.000400  122.861260 
 0.000000 0.000600  115.345742 
 0.000893 0.000000  198.139334 
 0.000893 0.000200  142.457685 
 0.000893 0.000400  134.042195 
 0.000893 0.000600  124.656439 
 0.001786 0.000000  206.928807 
 0.001786 0.000200  145.515624 
 0.001786 0.000400  133.617852 
 0.001786 0.000600  122.611985 
 0.002679 0.000000  188.283236 
 0.002679 0.000200  138.068876 
 0.002679 0.000400  132.739671 
 0.002679 0.000600  125.057735 
 0.003571 0.000000  200.138893 
 0.003571 0.000200  145.154882 
 0.003571 0.000400  138.428039 
 0.003571 0.000600  130.108672 
 0.004464 0.000000  189.248077 
 0.004464 0.000200  138.717274 
 0.004464 0.000400  133.814269 
 0.004464 0.000600  126.793573 
 0.005357 0.000000  202.641220 
 0.005357 0.000200  151.660776 
 0.005357 0.000400  149.377108 
 0.005357 0.000600  142.729237 
 0.006250 0.000000  193.254820 
 0.006250 0.000200  149.692009 
 0.006250 0.000400  152.396677 
 0.006250 0.000600  148.067883 
 0.007143 0.000000  190.106487 
 0.007143 0.000200  147.427907 
 0.007143 0.000400  150.265109 
 0.007143 0.000600  146.146324 
 0.008036 0.000000  201.061937 
 0.008036 0.000200  155.829808 
 0.008036 0.000400  158.990251 
 0.008036 0.000600  154.677170 
 0.008929 0.000000  174.717192 
 0.008929 0.000200  139.383141 
 0.008929 0.000400  145.851853 
 0.008929 0.000600  143.796972 
 0.009821 0.000000  195.780664 
 0.009821 0.000200  149.240298 
 0.009821 0.000400  149.922626 
 0.009821 0.000600  144.836005 
 0.010714 0.000000  177.586030 
 0.010714 0.000200  141.693633 
 0.010714 0.000400  147.451144 
 0.010714 0.000600  144.484232 
 0.011607 0.000000  181.389108 
 0.011607 0.000200  135.386924 
 0.011607 0.000400  132.084828 
 0.011607 0.000600  125.264874 
 0.012500 0.000000  183.460682 
 0.012500 0.000200  123.311232 
 0.012500 0.000400  107.225805 
 0.012500 0.000600  95.436547 
 1 2 6 5 
 2 3 7 6 
 3 4 8 7 
 5 6 10 9 
 6 7 11 10 
 7 8 12 11 
 9 10 14 13 
 10 11 15 14 
 11 12 16 15 
 13 14 18 17 
 14 15 19 18 
 15 16 20 19 
 17 18 22 21 
 18 19 23 22 
 19 20 24 23 
 21 22 26 25 
 22 23 27 26 
 23 24 28 27 
 25 26 30 29 
 26 27 31 30 
 27 28 32 31 
 29 30 34 33 
 30 31 35 34 
 31 32 36 35 
 33 34 38 37 
 34 35 39 38 
 35 36 40 39 
 37 38 42 41 
 38 39 43 42 
 39 40 44 43 
 41 42 46 45 
 42 43 47 46 
 43 44 48 47 
 45 46 50 49 
 46 47 51 50 
 47 48 52 51 
 49 50 54 53 
 50 51 55 54 
 51 52 56 55 
 53 54 58 57 
 54 55 59 58 
 55 56 60 59 
 "TITLE = 2D-Temperature  by Amin zaami" 
VARIABLES = "X", "Y", "Temp" 
zone  N=    60 E=   42 F=FEPOINT  ET=QUADRILATERAL  
STRANDID=1, SOLUTIONTIME=  5 
 0.000000 0.000000  175.492264 
 0.000000 0.000200  126.388574 
 0.000000 0.000400  122.462936 
 0.000000 0.000600  116.675154 
 0.000893 0.000000  197.020023 
 0.000893 0.000200  139.806502 
 0.000893 0.000400  133.519821 
 0.000893 0.000600  126.066608 
 0.001786 0.000000  205.148840 
 0.001786 0.000200  142.813884 
 0.001786 0.000400  133.655872 
 0.001786 0.000600  124.704324 
 0.002679 0.000000  188.041535 
 0.002679 0.000200  135.861372 
 0.002679 0.000400  132.164109 
 0.002679 0.000600  126.222768 
 0.003571 0.000000  199.158143 
 0.003571 0.000200  142.545805 
 0.003571 0.000400  137.747672 
 0.003571 0.000600  131.213026 
 0.004464 0.000000  188.984284 
 0.004464 0.000200  136.672673 
 0.004464 0.000400  133.435309 
 0.004464 0.000600  128.007004 
 0.005357 0.000000  202.388189 
 0.005357 0.000200  148.943596 
 0.005357 0.000400  147.999435 
 0.005357 0.000600  143.138460 
 0.006250 0.000000  194.063224 
 0.006250 0.000200  147.221593 
 0.006250 0.000400  150.508297 
 0.006250 0.000600  147.818502 
 0.007143 0.000000  191.023822 
 0.007143 0.000200  145.149032 
 0.007143 0.000400  148.604596 
 0.007143 0.000600  146.106675 
 0.008036 0.000000  201.536478 
 0.008036 0.000200  152.986174 
 0.008036 0.000400  156.734870 
 0.008036 0.000600  154.130950 
 0.008929 0.000000  176.486371 
 0.008929 0.000200  137.480869 
 0.008929 0.000400  143.942160 
 0.008929 0.000600  143.276569 
 0.009821 0.000000  195.853167 
 0.009821 0.000200  146.601211 
 0.009821 0.000400  148.269624 
 0.009821 0.000600  144.889315 
 0.010714 0.000000  179.092338 
 0.010714 0.000200  139.254739 
 0.010714 0.000400  145.090609 
 0.010714 0.000600  143.726508 
 0.011607 0.000000  181.247070 
 0.011607 0.000200  132.894240 
 0.011607 0.000400  130.997853 
 0.011607 0.000600  125.957894 
 0.012500 0.000000  181.219405 
 0.012500 0.000200  121.279551 
 0.012500 0.000400  108.454500 
 0.012500 0.000600  98.531050 
 1 2 6 5 
 2 3 7 6 
 3 4 8 7 
 5 6 10 9 
 6 7 11 10 
 7 8 12 11 
 9 10 14 13 
 10 11 15 14 
 11 12 16 15 
 13 14 18 17 
 14 15 19 18 
 15 16 20 19 
 17 18 22 21 
 18 19 23 22 
 19 20 24 23 
 21 22 26 25 
 22 23 27 26 
 23 24 28 27 
 25 26 30 29 
 26 27 31 30 
 27 28 32 31 
 29 30 34 33 
 30 31 35 34 
 31 32 36 35 
 33 34 38 37 
 34 35 39 38 
 35 36 40 39 
 37 38 42 41 
 38 39 43 42 
 39 40 44 43 
 41 42 46 45 
 42 43 47 46 
 43 44 48 47 
 45 46 50 49 
 46 47 51 50 
 47 48 52 51 
 49 50 54 53 
 50 51 55 54 
 51 52 56 55 
 53 54 58 57 
 54 55 59 58 
 55 56 60 59 
 "TITLE = 2D-Temperature  by Amin zaami" 
VARIABLES = "X", "Y", "Temp" 
zone  N=    60 E=   42 F=FEPOINT  ET=QUADRILATERAL  
STRANDID=1, SOLUTIONTIME=  6 
 0.000000 0.000000  174.963091 
 0.000000 0.000200  124.965610 
 0.000000 0.000400  122.137636 
 0.000000 0.000600  117.694983 
 0.000893 0.000000  195.729175 
 0.000893 0.000200  137.901470 
 0.000893 0.000400  133.039317 
 0.000893 0.000600  127.118046 
 0.001786 0.000000  203.286660 
 0.001786 0.000200  140.885181 
 0.001786 0.000400  133.618148 
 0.001786 0.000600  126.353434 
 0.002679 0.000000  187.565217 
 0.002679 0.000200  134.328428 
 0.002679 0.000400  131.683173 
 0.002679 0.000600  127.089536 
 0.003571 0.000000  198.002028 
 0.003571 0.000200  140.660481 
 0.003571 0.000400  137.120033 
 0.003571 0.000600  131.994287 
 0.004464 0.000000  188.519461 
 0.004464 0.000200  135.266462 
 0.004464 0.000400  133.096347 
 0.004464 0.000600  128.924432 
 0.005357 0.000000  201.854921 
 0.005357 0.000200  146.964048 
 0.005357 0.000400  146.795922 
 0.005357 0.000600  143.258749 
 0.006250 0.000000  194.481667 
 0.006250 0.000200  145.440181 
 0.006250 0.000400  148.915536 
 0.006250 0.000600  147.355275 
 0.007143 0.000000  191.567056 
 0.007143 0.000200  143.534317 
 0.007143 0.000400  147.207950 
 0.007143 0.000600  145.831149 
 0.008036 0.000000  201.628383 
 0.008036 0.000200  150.876770 
 0.008036 0.000400  154.796947 
 0.008036 0.000600  153.360545 
 0.008929 0.000000  177.810015 
 0.008929 0.000200  136.164673 
 0.008929 0.000400  142.377639 
 0.008929 0.000600  142.609175 
 0.009821 0.000000  195.628109 
 0.009821 0.000200  144.666301 
 0.009821 0.000400  146.828343 
 0.009821 0.000600  144.668664 
 0.010714 0.000000  180.115030 
 0.010714 0.000200  137.502234 
 0.010714 0.000400  143.132803 
 0.010714 0.000600  142.807512 
 0.011607 0.000000  180.833590 
 0.011607 0.000200  131.119372 
 0.011607 0.000400  130.072013 
 0.011607 0.000600  126.365827 
 0.012500 0.000000  179.039608 
 0.012500 0.000200  119.910954 
 0.012500 0.000400  109.439878 
 0.012500 0.000600  101.167704 
 1 2 6 5 
 2 3 7 6 
 3 4 8 7 
 5 6 10 9 
 6 7 11 10 
 7 8 12 11 
 9 10 14 13 
 10 11 15 14 
 11 12 16 15 
 13 14 18 17 
 14 15 19 18 
 15 16 20 19 
 17 18 22 21 
 18 19 23 22 
 19 20 24 23 
 21 22 26 25 
 22 23 27 26 
 23 24 28 27 
 25 26 30 29 
 26 27 31 30 
 27 28 32 31 
 29 30 34 33 
 30 31 35 34 
 31 32 36 35 
 33 34 38 37 
 34 35 39 38 
 35 36 40 39 
 37 38 42 41 
 38 39 43 42 
 39 40 44 43 
 41 42 46 45 
 42 43 47 46 
 43 44 48 47 
 45 46 50 49 
 46 47 51 50 
 47 48 52 51 
 49 50 54 53 
 50 51 55 54 
 51 52 56 55 
 53 54 58 57 
 54 55 59 58 
 55 56 60 59 
 "TITLE = 2D-Temperature  by Amin zaami" 
VARIABLES = "X", "Y", "Temp" 
zone  N=    60 E=   42 F=FEPOINT  ET=QUADRILATERAL  
STRANDID=1, SOLUTIONTIME=  7 
 0.000000 0.000000  174.327100 
 0.000000 0.000200  123.946387 
 0.000000 0.000400  121.890634 
 0.000000 0.000600  118.485777 
 0.000893 0.000000  194.362491 
 0.000893 0.000200  136.461332 
 0.000893 0.000400  132.621076 
 0.000893 0.000600  127.899449 
 0.001786 0.000000  201.426941 
 0.001786 0.000200  139.432447 
 0.001786 0.000400  133.559003 
 0.001786 0.000600  127.651947 
 0.002679 0.000000  186.951460 
 0.002679 0.000200  133.215378 
 0.002679 0.000400  131.297980 
 0.002679 0.000600  127.738578 
 0.003571 0.000000  196.763508 
 0.003571 0.000200  139.226920 
 0.003571 0.000400  136.565403 
 0.003571 0.000600  132.535961 
 0.004464 0.000000  187.940793 
 0.004464 0.000200  134.254107 
 0.004464 0.000400  132.815736 
 0.004464 0.000600  129.619139 
 0.005357 0.000000  201.149355 
 0.005357 0.000200  145.449255 
 0.005357 0.000400  145.751796 
 0.005357 0.000600  143.185438 
 0.006250 0.000000  194.628125 
 0.006250 0.000200  144.096947 
 0.006250 0.000400  147.565872 
 0.006250 0.000600  146.773171 
 0.007143 0.000000  191.848348 
 0.007143 0.000200  142.339426 
 0.007143 0.000400  146.028929 
 0.007143 0.000600  145.415707 
 0.008036 0.000000  201.458424 
 0.008036 0.000200  149.237299 
 0.008036 0.000400  153.122082 
 0.008036 0.000600  152.469593 
 0.008929 0.000000  178.803116 
 0.008929 0.000200  135.222037 
 0.008929 0.000400  141.085624 
 0.008929 0.000600  141.879590 
 0.009821 0.000000  195.210460 
 0.009821 0.000200  143.177727 
 0.009821 0.000400  145.572236 
 0.009821 0.000600  144.273802 
 0.010714 0.000000  180.785518 
 0.010714 0.000200  136.190059 
 0.010714 0.000400  141.493746 
 0.010714 0.000600  141.825342 
 0.011607 0.000000  180.254512 
 0.011607 0.000200  129.795927 
 0.011607 0.000400  129.293731 
 0.011607 0.000600  126.579065 
 0.012500 0.000000  176.976095 
 0.012500 0.000200  118.942512 
 0.012500 0.000400  110.278623 
 0.012500 0.000600  103.413499 
 1 2 6 5 
 2 3 7 6 
 3 4 8 7 
 5 6 10 9 
 6 7 11 10 
 7 8 12 11 
 9 10 14 13 
 10 11 15 14 
 11 12 16 15 
 13 14 18 17 
 14 15 19 18 
 15 16 20 19 
 17 18 22 21 
 18 19 23 22 
 19 20 24 23 
 21 22 26 25 
 22 23 27 26 
 23 24 28 27 
 25 26 30 29 
 26 27 31 30 
 27 28 32 31 
 29 30 34 33 
 30 31 35 34 
 31 32 36 35 
 33 34 38 37 
 34 35 39 38 
 35 36 40 39 
 37 38 42 41 
 38 39 43 42 
 39 40 44 43 
 41 42 46 45 
 42 43 47 46 
 43 44 48 47 
 45 46 50 49 
 46 47 51 50 
 47 48 52 51 
 49 50 54 53 
 50 51 55 54 
 51 52 56 55 
 53 54 58 57 
 54 55 59 58 
 55 56 60 59 
 "TITLE = 2D-Temperature  by Amin zaami" 
VARIABLES = "X", "Y", "Temp" 
zone  N=    60 E=   42 F=FEPOINT  ET=QUADRILATERAL  
STRANDID=1, SOLUTIONTIME=  8 
 0.000000 0.000000  173.638627 
 0.000000 0.000200  123.183777 
 0.000000 0.000400  121.708695 
 0.000000 0.000600  119.107104 
 0.000893 0.000000  192.977051 
 0.000893 0.000200  135.317826 
 0.000893 0.000400  132.258779 
 0.000893 0.000600  128.478076 
 0.001786 0.000000  199.616207 
 0.001786 0.000200  138.280225 
 0.001786 0.000400  133.492629 
 0.001786 0.000600  128.674584 
 0.002679 0.000000  186.260945 
 0.002679 0.000200  132.368542 
 0.002679 0.000400  130.991666 
 0.002679 0.000600  128.228757 
 0.003571 0.000000  195.498299 
 0.003571 0.000200  138.082545 
 0.003571 0.000400  136.077471 
 0.003571 0.000600  132.901235 
 0.004464 0.000000  187.301639 
 0.004464 0.000200  133.489275 
 0.004464 0.000400  132.587541 
 0.004464 0.000600  130.146990 
 0.005357 0.000000  200.339867 
 0.005357 0.000200  144.233740 
 0.005357 0.000400  144.839258 
 0.005357 0.000600  142.985672 
 0.006250 0.000000  194.581432 
 0.006250 0.000200  143.036966 
 0.006250 0.000400  146.409339 
 0.006250 0.000600  146.134197 
 0.007143 0.000000  191.942296 
 0.007143 0.000200  141.413690 
 0.007143 0.000400  145.022242 
 0.007143 0.000600  144.924143 
 0.008036 0.000000  201.106665 
 0.008036 0.000200  147.904730 
 0.008036 0.000400  151.658440 
 0.008036 0.000600  151.525944 
 0.008929 0.000000  179.545366 
 0.008929 0.000200  134.519566 
 0.008929 0.000400  140.005925 
 0.008929 0.000600  141.140036 
 0.009821 0.000000  194.667604 
 0.009821 0.000200  141.978061 
 0.009821 0.000400  144.467476 
 0.009821 0.000600  143.773724 
 0.010714 0.000000  181.194344 
 0.010714 0.000200  135.164106 
 0.010714 0.000400  140.104178 
 0.010714 0.000600  140.839988 
 0.011607 0.000000  179.576884 
 0.011607 0.000200  128.762370 
 0.011607 0.000400  128.636314 
 0.011607 0.000600  126.661384 
 0.012500 0.000000  175.052964 
 0.012500 0.000200  118.221970 
 0.012500 0.000400  111.013078 
 0.012500 0.000600  105.330498 
 1 2 6 5 
 2 3 7 6 
 3 4 8 7 
 5 6 10 9 
 6 7 11 10 
 7 8 12 11 
 9 10 14 13 
 10 11 15 14 
 11 12 16 15 
 13 14 18 17 
 14 15 19 18 
 15 16 20 19 
 17 18 22 21 
 18 19 23 22 
 19 20 24 23 
 21 22 26 25 
 22 23 27 26 
 23 24 28 27 
 25 26 30 29 
 26 27 31 30 
 27 28 32 31 
 29 30 34 33 
 30 31 35 34 
 31 32 36 35 
 33 34 38 37 
 34 35 39 38 
 35 36 40 39 
 37 38 42 41 
 38 39 43 42 
 39 40 44 43 
 41 42 46 45 
 42 43 47 46 
 43 44 48 47 
 45 46 50 49 
 46 47 51 50 
 47 48 52 51 
 49 50 54 53 
 50 51 55 54 
 51 52 56 55 
 53 54 58 57 
 54 55 59 58 
 55 56 60 59 
 "TITLE = 2D-Temperature  by Amin zaami" 
VARIABLES = "X", "Y", "Temp" 
zone  N=    60 E=   42 F=FEPOINT  ET=QUADRILATERAL  
STRANDID=1, SOLUTIONTIME=  9 
 0.000000 0.000000  172.930972 
 0.000000 0.000200  122.587393 
 0.000000 0.000400  121.574576 
 0.000000 0.000600  119.601549 
 0.000893 0.000000  191.606518 
 0.000893 0.000200  134.368302 
 0.000893 0.000400  131.938461 
 0.000893 0.000600  128.903056 
 0.001786 0.000000  197.878581 
 0.001786 0.000200  137.322707 
 0.001786 0.000400  133.418401 
 0.001786 0.000600  129.478919 
 0.002679 0.000000  185.531758 
 0.002679 0.000200  131.693487 
 0.002679 0.000400  130.743984 
 0.002679 0.000600  128.601591 
 0.003571 0.000000  194.239539 
 0.003571 0.000200  137.128205 
 0.003571 0.000400  135.642181 
 0.003571 0.000600  133.135996 
 0.004464 0.000000  186.634710 
 0.004464 0.000200  132.882695 
 0.004464 0.000400  132.398747 
 0.004464 0.000600  130.548779 
 0.005357 0.000000  199.470219 
 0.005357 0.000200  143.215357 
 0.005357 0.000400  144.030348 
 0.005357 0.000600  142.705095 
 0.006250 0.000000  194.395274 
 0.006250 0.000200  142.163129 
 0.006250 0.000400  145.404004 
 0.006250 0.000600  145.477111 
 0.007143 0.000000  191.899466 
 0.007143 0.000200  140.662829 
 0.007143 0.000400  144.149549 
 0.007143 0.000600  144.397289 
 0.008036 0.000000  200.627160 
 0.008036 0.000200  146.776935 
 0.008036 0.000400  150.362546 
 0.008036 0.000600  150.572166 
 0.008929 0.000000  180.093189 
 0.008929 0.000200  133.972567 
 0.008929 0.000400  139.091031 
 0.008929 0.000600  140.420771 
 0.009821 0.000000  194.043399 
 0.009821 0.000200  140.969520 
 0.009821 0.000400  143.482889 
 0.009821 0.000600  143.214552 
 0.010714 0.000000  181.405188 
 0.010714 0.000200  134.326715 
 0.010714 0.000400  138.909579 
 0.010714 0.000600  139.885898 
 0.011607 0.000000  178.843577 
 0.011607 0.000200  127.918993 
 0.011607 0.000400  128.072698 
 0.011607 0.000600  126.656216 
 0.012500 0.000000  173.277202 
 0.012500 0.000200  117.659110 
 0.012500 0.000400  111.662002 
 0.012500 0.000600  106.971324 
 1 2 6 5 
 2 3 7 6 
 3 4 8 7 
 5 6 10 9 
 6 7 11 10 
 7 8 12 11 
 9 10 14 13 
 10 11 15 14 
 11 12 16 15 
 13 14 18 17 
 14 15 19 18 
 15 16 20 19 
 17 18 22 21 
 18 19 23 22 
 19 20 24 23 
 21 22 26 25 
 22 23 27 26 
 23 24 28 27 
 25 26 30 29 
 26 27 31 30 
 27 28 32 31 
 29 30 34 33 
 30 31 35 34 
 31 32 36 35 
 33 34 38 37 
 34 35 39 38 
 35 36 40 39 
 37 38 42 41 
 38 39 43 42 
 39 40 44 43 
 41 42 46 45 
 42 43 47 46 
 43 44 48 47 
 45 46 50 49 
 46 47 51 50 
 47 48 52 51 
 49 50 54 53 
 50 51 55 54 
 51 52 56 55 
 53 54 58 57 
 54 55 59 58 
 55 56 60 59 
 "TITLE = 2D-Temperature  by Amin zaami" 
VARIABLES = "X", "Y", "Temp" 
zone  N=    60 E=   42 F=FEPOINT  ET=QUADRILATERAL  
STRANDID=1, SOLUTIONTIME=  10 
 0.000000 0.000000  172.224351 
 0.000000 0.000200  122.100700 
 0.000000 0.000400  121.472541 
 0.000000 0.000600  119.999020 
 0.000893 0.000000  190.270201 
 0.000893 0.000200  133.548941 
 0.000893 0.000400  131.646109 
 0.000893 0.000600  129.209635 
 0.001786 0.000000  196.224997 
 0.001786 0.000200  136.494778 
 0.001786 0.000400  133.331624 
 0.001786 0.000600  130.108461 
 0.002679 0.000000  184.787791 
 0.002679 0.000200  131.131183 
 0.002679 0.000400  130.536771 
 0.002679 0.000600  128.885772 
 0.003571 0.000000  193.006525 
 0.003571 0.000200  136.302233 
 0.003571 0.000400  135.245273 
 0.003571 0.000600  133.272849 
 0.004464 0.000000  185.959946 
 0.004464 0.000200  132.378902 
 0.004464 0.000400  132.236167 
 0.004464 0.000600  130.853634 
 0.005357 0.000000  198.568631 
 0.005357 0.000200  142.329981 
 0.005357 0.000400  143.301282 
 0.005357 0.000600  142.373919 
 0.006250 0.000000  194.106901 
 0.006250 0.000200  141.413729 
 0.006250 0.000400  144.516604 
 0.006250 0.000600  144.824906 
 0.007143 0.000000  191.754800 
 0.007143 0.000200  140.027059 
 0.007143 0.000400  143.380391 
 0.007143 0.000600  143.860236 
 0.008036 0.000000  200.057075 
 0.008036 0.000200  145.789004 
 0.008036 0.000400  149.199919 
 0.008036 0.000600  149.633642 
 0.008929 0.000000  180.487403 
 0.008929 0.000200  133.526712 
 0.008929 0.000400  138.304274 
 0.008929 0.000600  139.737714 
 0.009821 0.000000  193.366763 
 0.009821 0.000200  140.090384 
 0.009821 0.000400  142.592826 
 0.009821 0.000600  142.626224 
 0.010714 0.000000  181.463776 
 0.010714 0.000200  133.615319 
 0.010714 0.000400  137.867945 
 0.010714 0.000600  138.980934 
 0.011607 0.000000  178.082173 
 0.011607 0.000200  127.203204 
 0.011607 0.000400  127.579801 
 0.011607 0.000600  126.592391 
 0.012500 0.000000  171.646396 
 0.012500 0.000200  117.199211 
 0.012500 0.000400  112.234537 
 0.012500 0.000600  108.379030 
 1 2 6 5 
 2 3 7 6 
 3 4 8 7 
 5 6 10 9 
 6 7 11 10 
 7 8 12 11 
 9 10 14 13 
 10 11 15 14 
 11 12 16 15 
 13 14 18 17 
 14 15 19 18 
 15 16 20 19 
 17 18 22 21 
 18 19 23 22 
 19 20 24 23 
 21 22 26 25 
 22 23 27 26 
 23 24 28 27 
 25 26 30 29 
 26 27 31 30 
 27 28 32 31 
 29 30 34 33 
 30 31 35 34 
 31 32 36 35 
 33 34 38 37 
 34 35 39 38 
 35 36 40 39 
 37 38 42 41 
 38 39 43 42 
 39 40 44 43 
 41 42 46 45 
 42 43 47 46 
 43 44 48 47 
 45 46 50 49 
 46 47 51 50 
 47 48 52 51 
 49 50 54 53 
 50 51 55 54 
 51 52 56 55 
 53 54 58 57 
 54 55 59 58 
 55 56 60 59 
 "TITLE = 2D-Temperature  by Amin zaami" 
VARIABLES = "X", "Y", "Temp" 
zone  N=    60 E=   42 F=FEPOINT  ET=QUADRILATERAL  
STRANDID=1, SOLUTIONTIME=  11 
 0.000000 0.000000  171.530764 
 0.000000 0.000200  121.687729 
 0.000000 0.000400  121.389960 
 0.000000 0.000600  120.320380 
 0.000893 0.000000  188.978552 
 0.000893 0.000200  132.819325 
 0.000893 0.000400  131.370180 
 0.000893 0.000600  129.422967 
 0.001786 0.000000  194.658659 
 0.001786 0.000200  135.755566 
 0.001786 0.000400  133.227681 
 0.001786 0.000600  130.595961 
 0.002679 0.000000  184.043920 
 0.002679 0.000200  130.644119 
 0.002679 0.000400  130.355479 
 0.002679 0.000600  129.100936 
 0.003571 0.000000  191.809998 
 0.003571 0.000200  135.565530 
 0.003571 0.000400  134.874813 
 0.003571 0.000600  133.334753 
 0.004464 0.000000  185.289304 
 0.004464 0.000200  131.942838 
 0.004464 0.000400  132.088791 
 0.004464 0.000600  131.082166 
 0.005357 0.000000  197.653383 
 0.005357 0.000200  141.536693 
 0.005357 0.000400  142.633245 
 0.005357 0.000600  142.011688 
 0.006250 0.000000  193.742645 
 0.006250 0.000200  140.749047 
 0.006250 0.000400  143.721427 
 0.006250 0.000600  144.190223 
 0.007143 0.000000  191.532919 
 0.007143 0.000200  139.468005 
 0.007143 0.000400  142.691294 
 0.007143 0.000600  143.327602 
 0.008036 0.000000  199.422425 
 0.008036 0.000200  144.899095 
 0.008036 0.000400  148.143891 
 0.008036 0.000600  148.724426 
 0.008929 0.000000  180.758170 
 0.008929 0.000200  133.146821 
 0.008929 0.000400  137.617594 
 0.008929 0.000600  139.097715 
 0.009821 0.000000  192.657000 
 0.009821 0.000200  139.301096 
 0.009821 0.000400  141.777238 
 0.009821 0.000600  142.027585 
 0.010714 0.000000  181.403613 
 0.010714 0.000200  132.989416 
 0.010714 0.000400  136.947158 
 0.010714 0.000600  138.132519 
 0.011607 0.000000  177.310453 
 0.011607 0.000200  126.575059 
 0.011607 0.000400  127.139361 
 0.011607 0.000600  126.488656 
 0.012500 0.000000  170.153152 
 0.012500 0.000200  116.808296 
 0.012500 0.000400  112.736295 
 0.012500 0.000600  109.588443 
 1 2 6 5 
 2 3 7 6 
 3 4 8 7 
 5 6 10 9 
 6 7 11 10 
 7 8 12 11 
 9 10 14 13 
 10 11 15 14 
 11 12 16 15 
 13 14 18 17 
 14 15 19 18 
 15 16 20 19 
 17 18 22 21 
 18 19 23 22 
 19 20 24 23 
 21 22 26 25 
 22 23 27 26 
 23 24 28 27 
 25 26 30 29 
 26 27 31 30 
 27 28 32 31 
 29 30 34 33 
 30 31 35 34 
 31 32 36 35 
 33 34 38 37 
 34 35 39 38 
 35 36 40 39 
 37 38 42 41 
 38 39 43 42 